<LesHouchesEvents version="1.0">
<header>
<!--
#*********************************************************************
#                                                                    *
#                            MadGraph 5                              *
#                                                                    *
#                           Going Beyond                             *
#                                                                    *
#                   http://madgraph.hep.uiuc.edu                     *
#                   http://madgraph.phys.ucl.ac.be                   *
#                   http://madgraph.roma2.infn.it                    *
#                                                                    *
#                         The MadGraph team                          *
#                                                                    *
#....................................................................*
#                                                                    *
# This file contains all the information necessary to reproduce      *
# the events generated:                                              *
#                                                                    *
# 1. software version                                                *
# 2. proc_card          : code generation info including model       *
# 3. param_card         : model primary parameters in the LH format  *
# 4. run_card           : running parameters (collider and cuts)     *
# 5. pythia_card        : present only if pythia has been run        *
# 6. pgs_card           : present only if pgs has been run           *
# 7. delphes_cards      : present only if delphes has been run       *
#                                                                    *
#                                                                    *
#*********************************************************************
-->
<MGVersion>
# MG    version    : 5.1.3.30
</MGVersion>
<MG5ProcCard>
#************************************************************
#*                        MadGraph 5                        *
#*                                                          *
#*                *                       *                 *
#*                  *        * *        *                   *
#*                    * * * * 5 * * * *                     *
#*                  *        * *        *                   *
#*                *                       *                 *
#*                                                          *
#*                                                          *
#*         VERSION 1.3.30                2011-11-18         *
#*                                                          *
#*    The MadGraph Development Team - Please visit us at    *
#*    https://server06.fynu.ucl.ac.be/projects/madgraph     *
#*                                                          *
#************************************************************
#*                                                          *
#*               Command File for MadGraph 5                *
#*                                                          *
#*     run as ./bin/mg5  filename                           *
#*                                                          *
#************************************************************
import model sm-no_b_mass
# Define multiparticle labels
define p u c s d b u~ c~ s~ d~ b~ g
define j  = p
define l+ e+ mu+ ta+
define l- e- mu- ta-
define vl ve vm vt
define vl~ ve~ vm~ vt~
# Specify process(es) to run
generate p p > t t~ @0
add process p p > t t~ j @1
add process p p > t t~ j j @2
add process p p > t t~ j j j @3
# Output processes to MadEvent directory
output -f
</MG5ProcCard>
<MGProcCard>
#*********************************************************************
#                        MadGraph/MadEvent                           *
#                   http://madgraph.hep.uiuc.edu                     *
#                                                                    *
#                          proc_card.dat                             *
#*********************************************************************
#                                                                    *
#            This Files is generated by MADGRAPH 5                   *
#                                                                    *
# WARNING: This Files is generated for MADEVENT (compatibility issue)*
#          This files is NOT a valid MG4 proc_card.dat               *
#          Running this in MG4 will NEVER reproduce the result of MG5*
#                                                                    *
#*********************************************************************
#*********************************************************************
# Process(es) requested : mg2 input                                  *
#*********************************************************************
# Begin PROCESS # This is TAG. Do not modify this line
p p > t t~ @0           #Process
# Be carefull the coupling are here in MG5 convention
end_coup           # End the couplings input
done               # this tells MG there are no more procs
# End PROCESS  # This is TAG. Do not modify this line
#*********************************************************************
# Model information                                                  *
#*********************************************************************
# Begin MODEL  # This is TAG. Do not modify this line
sm-no_b_mass
# End   MODEL  # This is TAG. Do not modify this line
#*********************************************************************
# Start multiparticle definitions                                    *
#*********************************************************************
# Begin MULTIPARTICLES # This is TAG. Do not modify this line
# End  MULTIPARTICLES # This is TAG. Do not modify this line
</MGProcCard>
<slha>
######################################################################
## PARAM_CARD AUTOMATICALY GENERATED BY THE UFO  #####################
######################################################################
###################################
## INFORMATION FOR SMINPUTS
###################################
Block SMINPUTS 
    1 1.325070e+02 # aEWM1 
    2 1.166390e-05 # Gf 
    3 1.180000e-01 # aS 
###################################
## INFORMATION FOR MASS
###################################
Block MASS 
    4 0.000000e+00 # MC 
    5 0.000000e+00 # MB 
    6 1.725000e+02 # MT 
   11 0.000000e+00 # Me 
   13 0.000000e+00 # MM 
   15 1.777000e+00 # MTA 
   23 9.118800e+01 # MZ 
   25 1.200000e+02 # MH 
##  Not dependent paramater.
## Those values should be edited following analytical the 
## analytical expression. Some generator could simply ignore 
## those values and use the analytical expression
  12 0.000000 # ve : 0.0 
  14 0.000000 # vm : 0.0 
  16 0.000000 # vt : 0.0 
  2 0.000000 # u : 0.0 
  1 0.000000 # d : 0.0 
  3 0.000000 # s : 0.0 
  9000001 0.000000 # ghA : 0.0 
  9000003 80.419000 # ghWp : cmath.sqrt(MZ**2/2. + cmath.sqrt(MZ**4/4. - (aEW*cmath.pi*MZ**2)/(Gf*cmath.sqrt(2)))) 
  9000004 80.419000 # ghWm : cmath.sqrt(MZ**2/2. + cmath.sqrt(MZ**4/4. - (aEW*cmath.pi*MZ**2)/(Gf*cmath.sqrt(2)))) 
  9000005 0.000000 # ghG : 0.0 
  22 0.000000 # A : 0.0 
  24 80.419000 # W+ : cmath.sqrt(MZ**2/2. + cmath.sqrt(MZ**4/4. - (aEW*cmath.pi*MZ**2)/(Gf*cmath.sqrt(2)))) 
  21 0.000000 # G : 0.0 
  251 80.419000 # phi+ : cmath.sqrt(MZ**2/2. + cmath.sqrt(MZ**4/4. - (aEW*cmath.pi*MZ**2)/(Gf*cmath.sqrt(2)))) 
###################################
## INFORMATION FOR DECAY
###################################
DECAY   6 1.398815e+00 
DECAY  15 0.000000e+00 
DECAY  23 2.441404e+00 
DECAY  24 2.047600e+00 
DECAY  25 5.753088e-03 
##  Not dependent paramater.
## Those values should be edited following analytical the 
## analytical expression. Some generator could simply ignore 
## those values and use the analytical expression
DECAY  12 0.000000 # ve : 0.0 
DECAY  14 0.000000 # vm : 0.0 
DECAY  16 0.000000 # vt : 0.0 
DECAY  2 0.000000 # u : 0.0 
DECAY  4 0.000000 # c : 0.0 
DECAY  1 0.000000 # d : 0.0 
DECAY  3 0.000000 # s : 0.0 
DECAY  5 0.000000 # b : 0.0 
DECAY  9000001 0.000000 # ghA : 0.0 
DECAY  9000002 0.000000 # ghZ : 0.0 
DECAY  9000003 0.000000 # ghWp : 0.0 
DECAY  9000004 0.000000 # ghWm : 0.0 
DECAY  9000005 0.000000 # ghG : 0.0 
DECAY  22 0.000000 # A : 0.0 
DECAY  21 0.000000 # G : 0.0 
DECAY  250 0.000000 # phi0 : 0.0 
DECAY  251 0.000000 # phi+ : 0.0 
DECAY  11 0.000000 # e- : 0.0 
DECAY  13 0.000000 # m- : 0.0 
###################################
## INFORMATION FOR WOLFENSTEIN
###################################
Block Wolfenstein 
    1 0.000000e+00 # lamWS 
    2 0.000000e+00 # AWS 
    3 0.000000e+00 # rhoWS 
    4 0.000000e+00 # etaWS 
###################################
## INFORMATION FOR YUKAWA
###################################
Block YUKAWA 
    4 0.000000e+00 # ymc 
    5 0.000000e+00 # ymb 
    6 1.645000e+02 # ymt 
   11 0.000000e+00 # yme 
   13 0.000000e+00 # ymm 
   15 1.777000e+00 # ymtau 
#===========================================================
# QUANTUM NUMBERS OF NEW STATE(S) (NON SM PDG CODE)
#===========================================================
Block QNUMBERS 9000001  # ghA 
        1 0  # 3 times electric charge
        2 -1  # number of spin states (2S+1)
        3 1  # colour rep (1: singlet, 3: triplet, 8: octet)
        4 1  # Particle/Antiparticle distinction (0=own anti)
Block QNUMBERS 9000002  # ghZ 
        1 0  # 3 times electric charge
        2 -1  # number of spin states (2S+1)
        3 1  # colour rep (1: singlet, 3: triplet, 8: octet)
        4 1  # Particle/Antiparticle distinction (0=own anti)
Block QNUMBERS 9000003  # ghWp 
        1 3  # 3 times electric charge
        2 -1  # number of spin states (2S+1)
        3 1  # colour rep (1: singlet, 3: triplet, 8: octet)
        4 1  # Particle/Antiparticle distinction (0=own anti)
Block QNUMBERS 9000004  # ghWm 
        1 -3  # 3 times electric charge
        2 -1  # number of spin states (2S+1)
        3 1  # colour rep (1: singlet, 3: triplet, 8: octet)
        4 1  # Particle/Antiparticle distinction (0=own anti)
Block QNUMBERS 9000005  # ghG 
        1 0  # 3 times electric charge
        2 -1  # number of spin states (2S+1)
        3 8  # colour rep (1: singlet, 3: triplet, 8: octet)
        4 1  # Particle/Antiparticle distinction (0=own anti)
Block QNUMBERS 250  # phi0 
        1 0  # 3 times electric charge
        2 3  # number of spin states (2S+1)
        3 1  # colour rep (1: singlet, 3: triplet, 8: octet)
        4 0  # Particle/Antiparticle distinction (0=own anti)
Block QNUMBERS 251  # phi+ 
        1 3  # 3 times electric charge
        2 3  # number of spin states (2S+1)
        3 1  # colour rep (1: singlet, 3: triplet, 8: octet)
        4 1  # Particle/Antiparticle distinction (0=own anti)
</slha>
<MGRunCard>
#*********************************************************************
#                       MadGraph/MadEvent                            *
#                  http://madgraph.hep.uiuc.edu                      *
#                                                                    *
#                        run_card.dat                                *
#                                                                    *
#  This file is used to set the parameters of the run.               *
#                                                                    *
#  Some notation/conventions:                                        *
#                                                                    *
#   Lines starting with a '# ' are info or comments                  *
#                                                                    *
#   mind the format:   value    = variable     ! comment             *
#*********************************************************************
#
#*******************                                                 
# Running parameters
#*******************                                                 
#                                                                    
#*********************************************************************
# Tag name for the run (one word)                                    *
#*********************************************************************
  'tt'     = run_tag ! name of the run 
#*********************************************************************
# Run to generate the grid pack                                      *
#*********************************************************************
  .true.     = gridpack  !True = setting up the grid pack
#*********************************************************************
# Number of events and rnd seed                                      *
#*********************************************************************
      0       = nevents ! Number of unweighted events requested
      0       = iseed   ! rnd seed (0=assigned automatically=default))
#*********************************************************************
# Collider type and energy                                           *
#*********************************************************************
        1     = lpp1  ! beam 1 type (0=NO PDF)
        1     = lpp2  ! beam 2 type (0=NO PDF)
     4000     = ebeam1  ! beam 1 energy in GeV
     4000     = ebeam2  ! beam 2 energy in GeV
#*********************************************************************
# Beam polarization from -100 (left-handed) to 100 (right-handed)    *
#*********************************************************************
        0     = polbeam1 ! beam polarization for beam 1
        0     = polbeam2 ! beam polarization for beam 2
#*********************************************************************
# PDF CHOICE: this automatically fixes also alpha_s and its evol.    *
#*********************************************************************
 'cteq6l1'    = pdlabel     ! PDF set                                     
#*********************************************************************
# Renormalization and factorization scales                           *
#*********************************************************************
 F        = fixed_ren_scale  ! if .true. use fixed ren scale
 F        = fixed_fac_scale  ! if .true. use fixed fac scale
 91.1880  = scale            ! fixed ren scale
 91.1880  = dsqrt_q2fact1    ! fixed fact scale for pdf1
 91.1880  = dsqrt_q2fact2    ! fixed fact scale for pdf2
 1        = scalefact        ! scale factor for event-by-event scales
#*********************************************************************
# Matching - Warning! ickkw > 0 is still beta
#*********************************************************************
 1        = ickkw            ! 0 no matching, 1 MLM, 2 CKKW matching
 1        = highestmult      ! for ickkw=2, highest mult group
 1        = ktscheme         ! for ickkw=1, 1 Durham kT, 2 Pythia pTE
 1        = alpsfact         ! scale factor for QCD emission vx
 F        = chcluster        ! cluster only according to channel diag
 F        = pdfwgt           ! for ickkw=1, perform pdf reweighting
#*********************************************************************
#                                                                    
#**********************************
# BW cutoff (M+/-bwcutoff*Gamma)
#**********************************
  15  = bwcutoff
  F  = cut_decays ! Apply decays to products
#*******************                                                 
# Standard Cuts
#*******************                                                 
#                                                                    
#*********************************************************************
# Minimum and maximum pt's                                           *
#*********************************************************************
 20  = ptj       ! minimum pt for the jets 
 20  = ptb       ! minimum pt for the b 
  0  = pta       ! minimum pt for the photons 
  0  = ptl       ! minimum pt for the charged leptons 
  0  = misset    ! minimum missing Et (sum of neutrino's momenta)
  0  = ptheavy   ! minimum pt for one heavy final state
 1d5 = ptjmax    ! maximum pt for the jets
 1d5 = ptbmax    ! maximum pt for the b
 1d5 = ptamax    ! maximum pt for the photons
 1d5 = ptlmax    ! maximum pt for the charged leptons
 1d5 = missetmax ! maximum missing Et (sum of neutrino's momenta)
#*********************************************************************
# Minimum and maximum E's (in the lab frame)                         *
#*********************************************************************
  0  = ej     ! minimum E for the jets 
  0  = eb     ! minimum E for the b 
  0  = ea     ! minimum E for the photons 
  0  = el     ! minimum E for the charged leptons 
 1d5  = ejmax ! maximum E for the jets
 1d5  = ebmax ! maximum E for the b
 1d5  = eamax ! maximum E for the photons
 1d5  = elmax ! maximum E for the charged leptons
#*********************************************************************
# Maximum and minimum rapidity                                       *
#*********************************************************************
 5d0  = etaj    ! max rap for the jets 
 5d0  = etab    ! max rap for the b 
 2d5  = etaa    ! max rap for the photons 
 2d5  = etal    ! max rap for the charged leptons 
 0d0  = etajmin ! min rap for the jets
 0d0  = etabmin ! min rap for the b
 0d0  = etaamin ! min rap for the photons
 0d0  = etalmin ! main rap for the charged leptons
#*********************************************************************
# Minimum and maximum DeltaR distance                                *
#*********************************************************************
 0.001 = drjj    ! min distance between jets 
 0.001   = drbb    ! min distance between b's 
 0   = drll    ! min distance between leptons 
 0   = draa    ! min distance between gammas 
 0.001   = drbj    ! min distance between b and jet 
 0   = draj    ! min distance between gamma and jet 
 0   = drjl    ! min distance between jet and lepton 
 0   = drab    ! min distance between gamma and b 
 0   = drbl    ! min distance between b and lepton 
 0   = dral    ! min distance between gamma and lepton 
 1d2 = drjjmax ! max distance between jets
 1d2 = drbbmax ! max distance between b's
 1d2 = drllmax ! max distance between leptons
 1d2 = draamax ! max distance between gammas
 1d2 = drbjmax ! max distance between b and jet
 1d2 = drajmax ! max distance between gamma and jet
 1d2 = drjlmax ! max distance between jet and lepton
 1d2 = drabmax ! max distance between gamma and b
 1d2 = drblmax ! max distance between b and lepton
 1d2 = dralmax ! maxdistance between gamma and lepton
#*********************************************************************
# Minimum and maximum invariant mass for pairs                       *
#*********************************************************************
 0   = mmjj    ! min invariant mass of a jet pair 
 0   = mmbb    ! min invariant mass of a b pair 
 0   = mmaa    ! min invariant mass of gamma gamma pair
 0   = mmll    ! min invariant mass of l+l- (same flavour) lepton pair
 1d5 = mmjjmax ! max invariant mass of a jet pair
 1d5 = mmbbmax ! max invariant mass of a b pair
 1d5 = mmaamax ! max invariant mass of gamma gamma pair
 1d5 = mmllmax ! max invariant mass of l+l- (same flavour) lepton pair
#*********************************************************************
# Minimum and maximum invariant mass for all letpons                 *
#*********************************************************************
 0   = mmnl    ! min invariant mass for all letpons (l+- and vl) 
 1d5 = mmnlmax ! max invariant mass for all letpons (l+- and vl) 
#*********************************************************************
# Inclusive cuts                                                     *
#*********************************************************************
 0  = xptj ! minimum pt for at least one jet  
 0  = xptb ! minimum pt for at least one b 
 0  = xpta ! minimum pt for at least one photon 
 0  = xptl ! minimum pt for at least one charged lepton 
#*********************************************************************
# Control the pt's of the jets sorted by pt                          *
#*********************************************************************
 0   = ptj1min ! minimum pt for the leading jet in pt
 0   = ptj2min ! minimum pt for the second jet in pt
 0   = ptj3min ! minimum pt for the third jet in pt
 0   = ptj4min ! minimum pt for the fourth jet in pt
 1d5 = ptj1max ! maximum pt for the leading jet in pt 
 1d5 = ptj2max ! maximum pt for the second jet in pt
 1d5 = ptj3max ! maximum pt for the third jet in pt
 1d5 = ptj4max ! maximum pt for the fourth jet in pt
 0   = cutuse  ! reject event if fails any (0) / all (1) jet pt cuts
#*********************************************************************
# Control the Ht(k)=Sum of k leading jets                            *
#*********************************************************************
 0   = htjmin ! minimum jet HT=Sum(jet pt)
 1d5 = htjmax ! maximum jet HT=Sum(jet pt)
 0   = ht2min ! minimum Ht for the two leading jets
 0   = ht3min ! minimum Ht for the three leading jets
 0   = ht4min ! minimum Ht for the four leading jets
 1d5 = ht2max ! maximum Ht for the two leading jets
 1d5 = ht3max ! maximum Ht for the three leading jets
 1d5 = ht4max ! maximum Ht for the four leading jets
#*********************************************************************
# WBF cuts                                                           *
#*********************************************************************
 0   = xetamin ! minimum rapidity for two jets in the WBF case  
 0   = deltaeta ! minimum rapidity for two jets in the WBF case 
#*********************************************************************
# maximal pdg code for quark to be considered as a jet               *
# otherwise b cuts are applied                                       *
#*********************************************************************
 5 = maxjetflavor ! Apply b cuts
#*********************************************************************
# Jet measure cuts                                                   *
#*********************************************************************
 20   = xqcut   ! minimum kt jet measure between partons
#*********************************************************************
</MGRunCard>
<MGGridCard>
#*********************************************************************
#                       MadGraph/MadEvent                            *
#                  http://madgraph.hep.uiuc.edu                      *
#                                                                    *
#                        grid_card.dat                               *
#                                                                    *
#  This file is used to set the parameters of the run.               *
#                                                                    *
#  Some notation/conventions:                                        *
#                                                                    *
#   Lines starting with a '# ' are info or comments                  *
#                                                                    *
#   mind the format:   value    = variable     ! comment             *
#*********************************************************************
#
#*******************                                                 
# Running parameters
#*******************                                                 
#
#*********************************************************************
#  Tell if this is a grid run or not, false during warm-up on the    *
#  cluster, automatically set to true after warm-up and the gridpack *
#  is ready. The user should not change this.                        *
#*********************************************************************
  .true.  =  GridRun   !True = Runs in the grid mode
#*********************************************************************
# Number of events and rnd seed                                      *
#*********************************************************************
 0      = gevents ! Number of unweighted events requested
  0    = gseed   ! rnd seed
    -1       = ngran   ! Granularity (minimum # events per channel)
#*********************************************************************
</MGGridCard>
<MGParamCMS>
# All parameters that are given here can be selected to be set from this
# header by setting the # corresponding CMSSW config parameter to -1
# In case this is done, the entries here must exist of an error message
# is given.
           5 = nqmatch    ! Max Jet Flavor
           3 = maxjets    ! Largest number (inclusive ktMLM matching multipl.)
           0 = minjets    ! Smallest number of additional light flavour jets
         5.0 = etaclmax   ! Maximum pseudorapidity for particles to cluster
        20.0 = qcut       ! Jet matching threshold for ktMLM scheme
</MGParamCMS>
</header>
<init>
     2212     2212  0.40000000000E+04  0.40000000000E+04 0 0 10042 10042 3  4
  0.10983746224E+03  0.24822416918E+00  0.49130000000E+01   3
  0.75698791541E+02  0.17107341390E+00  0.49130000000E+01   2
  0.15139758308E+03  0.34214682779E+00  0.49130000000E+01   1
  0.15436616314E+03  0.34885558912E+00  0.49130000000E+01   0
</init>
<event>
 7 3  4.9130000E+00  2.0754560E+02  7.9577470E-02  1.1499770E-01
       2   -1    0    0  501    0  0.00000000000E+00  0.00000000000E+00  5.02967427800E+02  5.02967427800E+02  0.00000000000E+00 0.0000E+00  1.0
      21   -1    0    0  505  503  0.00000000000E+00  0.00000000000E+00 -5.57398521220E+02  5.57398521220E+02  0.00000000000E+00 0.0000E+00  1.0
       6    1    1    2  501    0 -4.93761924610E+00  1.25042742670E+02 -2.83503869310E+02  3.54669933160E+02  1.72500000000E+02 0.0000E+00  1.0
      -6    1    1    2    0  503  3.39841338610E+01 -1.45506753840E+02  8.57179815920E+01  2.43784657300E+02  1.72500000000E+02 0.0000E+00  1.0
      21    1    1    2  504  502 -3.46656121240E+01  1.16267917900E+01  1.28864547770E+02  1.33951329300E+02  0.00000000000E+00 0.0000E+00  1.0
      21    1    1    2  505  504 -5.21888906390E+00 -2.18389893190E+01 -1.54369820740E+02  1.55994294160E+02  0.00000000000E+00 0.0000E+00 -1.0
       2    1    1    2  502    0  1.08379865730E+01  3.06762086950E+01  1.68860067260E+02  1.71965735100E+02  0.00000000000E+00 0.0000E+00  1.0
#  0.2075456E+03  0.2075456E+03  0.3847691E+02  0.2245391E+02  0.3244826E+02
</event>
<event>
 5 1  4.9130000E+00  2.0951440E+02  7.9577470E-02  1.1484560E-01
      21   -1    0    0  504  502  0.00000000000E+00  0.00000000000E+00  5.08861847970E+02  5.08861847970E+02  0.00000000000E+00 0.0000E+00 -1.0
      21   -1    0    0  501  503  0.00000000000E+00  0.00000000000E+00 -2.54441231560E+02  2.54441231560E+02  0.00000000000E+00 0.0000E+00 -1.0
       6    1    1    2  501    0 -1.20849894570E+02 -1.70352623000E+01  3.44584070090E+02  4.04214458600E+02  1.72500000000E+02 0.0000E+00 -1.0
      -6    1    1    2    0  502  1.09112052840E+02  4.75343442700E+01 -1.71903940510E+02  2.71057500770E+02  1.72500000000E+02 0.0000E+00 -1.0
      21    1    1    2  504  503  1.17378417280E+01 -3.04990819700E+01  8.17404868240E+01  8.80311201540E+01  0.00000000000E+00 0.0000E+00 -1.0
#  0.2095144E+03  0.2095144E+03  0.3267982E+02
</event>
<event>
 5 1  4.9130000E+00  3.2332760E+02  7.9577470E-02  1.0826320E-01
       2   -1    0    0  501    0  0.00000000000E+00  0.00000000000E+00  1.35662333900E+03  1.35662333900E+03  0.00000000000E+00 0.0000E+00  1.0
      21   -1    0    0  502  503  0.00000000000E+00  0.00000000000E+00 -1.79706797230E+02  1.79706797230E+02  0.00000000000E+00 0.0000E+00  1.0
       6    1    1    2  501    0 -2.31648357900E+02 -7.25626448540E+01  6.97290477470E+02  7.58219334440E+02  1.72500000000E+02 0.0000E+00  1.0
      -6    1    1    2    0  503 -8.19123000440E+01 -3.12398348260E+00 -1.06001717630E+01  1.91279893910E+02  1.72500000000E+02 0.0000E+00 -1.0
       2    1    1    2  502    0  3.13560657940E+02  7.56866283370E+01  4.90226236050E+02  5.86830907870E+02  0.00000000000E+00 0.0000E+00  1.0
#  0.3233276E+03  0.1909860E+03  0.2734677E+03
</event>
<event>
 5 1  4.9130000E+00  6.2901510E+02  7.9577470E-02  9.9514630E-02
      21   -1    0    0  503  502  0.00000000000E+00  0.00000000000E+00  8.95231058640E+02  8.95231058640E+02  0.00000000000E+00 0.0000E+00  1.0
      21   -1    0    0  501  503  0.00000000000E+00  0.00000000000E+00 -4.58458866070E+02  4.58458866070E+02  0.00000000000E+00 0.0000E+00 -1.0
       6    1    1    2  501    0 -3.78677229540E+02 -4.59084725700E+02  1.72225022960E+02  6.43096367650E+02  1.72500000000E+02 0.0000E+00 -1.0
      -6    1    1    2    0  504  3.83716488580E+02  4.79062964690E+02  2.63759184200E+02  6.89974510390E+02  1.72500000000E+02 0.0000E+00  1.0
      21    1    1    2  504  502 -5.03925903840E+00 -1.99782389850E+01  7.87985411870E-01  2.06190466710E+01  0.00000000000E+00 0.0000E+00  1.0
#  0.6290151E+03  0.6290151E+03  0.2060398E+02
</event>
<event>
 5 1  4.9130000E+00  1.9097970E+02  7.9577470E-02  1.1635590E-01
      21   -1    0    0  501  502  0.00000000000E+00  0.00000000000E+00  2.64481065860E+02  2.64481065860E+02  0.00000000000E+00 0.0000E+00 -1.0
      21   -1    0    0  504  503  0.00000000000E+00  0.00000000000E+00 -2.42503588810E+02  2.42503588810E+02  0.00000000000E+00 0.0000E+00 -1.0
       6    1    1    2  501    0  1.01943568320E+02  1.73986619810E+01  1.18704565450E+02  2.33542776420E+02  1.72500000000E+02 0.0000E+00 -1.0
      -6    1    1    2    0  503 -3.12253937910E+01  1.27556010520E+01 -8.64591304250E+01  1.95880478380E+02  1.72500000000E+02 0.0000E+00 -1.0
      21    1    1    2  504  502 -7.07181745320E+01 -3.01542630330E+01 -1.02679579770E+01  7.75613998660E+01  0.00000000000E+00 0.0000E+00 -1.0
#  0.1909797E+03  0.1909797E+03  0.7687873E+02
</event>
<event>
 5 1  4.9130000E+00  1.9754150E+02  7.9577470E-02  1.1580050E-01
      21   -1    0    0  502  503  0.00000000000E+00  0.00000000000E+00  6.88828669280E+02  6.88828669280E+02  0.00000000000E+00 0.0000E+00 -1.0
       4   -1    0    0  501    0  0.00000000000E+00  0.00000000000E+00 -7.51627235000E+01  7.51627235000E+01  0.00000000000E+00 0.0000E+00  1.0
       6    1    1    2  501    0  9.85160110010E+01  2.72808622270E+01  2.93168916420E+02  3.55181521790E+02  1.72500000000E+02 0.0000E+00  1.0
      -6    1    1    2    0  503 -9.39076203840E+01  2.60498322960E+01  2.72508881650E+02  3.36919241810E+02  1.72500000000E+02 0.0000E+00  1.0
       4    1    1    2  502    0 -4.60839061700E+00 -5.33306945230E+01  4.79881477190E+01  7.18906291800E+01  0.00000000000E+00 0.0000E+00  1.0
#  0.1975415E+03  0.1975415E+03  0.5352943E+02
</event>
<event>
 5 1  4.9130000E+00  3.5144140E+02  7.9577470E-02  1.0708370E-01
      21   -1    0    0  501  502  0.00000000000E+00  0.00000000000E+00  2.28095212730E+03  2.28095212730E+03  0.00000000000E+00 0.0000E+00  1.0
      21   -1    0    0  504  503  0.00000000000E+00  0.00000000000E+00 -1.31009600730E+02  1.31009600730E+02  0.00000000000E+00 0.0000E+00  1.0
       6    1    1    2  501    0  2.33052054650E+02  3.19662607200E+02  6.64842907530E+02  7.92634710510E+02  1.72500000000E+02 0.0000E+00  1.0
      -6    1    1    2    0  503 -2.25446884300E+02 -1.38146256400E+02  3.56474950190E+02  4.76173630000E+02  1.72500000000E+02 0.0000E+00  1.0
      21    1    1    2  504  502 -7.60517035500E+00 -1.81516350800E+02  1.12862466890E+03  1.14315338750E+03  0.00000000000E+00 0.0000E+00  1.0
#  0.3514414E+03  0.3514414E+03  0.1816756E+03
</event>
<event>
 6 2  4.9130000E+00  2.0871610E+02  7.9577470E-02  1.1490710E-01
      21   -1    0    0  501  503  0.00000000000E+00  0.00000000000E+00  3.67798003710E+02  3.67798003710E+02  0.00000000000E+00 0.0000E+00 -1.0
       1   -1    0    0  504    0  0.00000000000E+00  0.00000000000E+00 -1.12876984120E+03  1.12876984120E+03  0.00000000000E+00 0.0000E+00 -1.0
       6    1    1    2  501    0 -1.04974907180E+02  7.99866061550E+01  9.77394567030E+01  2.38173969400E+02  1.72500000000E+02 0.0000E+00 -1.0
      -6    1    1    2    0  502  6.29399296990E+01 -1.24574263240E+02 -1.34266373350E+02  2.59352830760E+02  1.72500000000E+02 0.0000E+00 -1.0
      21    1    1    2  504  503  4.09109041400E+01 -7.34922554810E-01  1.33637744960E+02  1.39761543590E+02  0.00000000000E+00 0.0000E+00  1.0
       1    1    1    2  502    0  1.12407334170E+00  4.53225796360E+01 -8.58082665840E+02  8.59279501200E+02  0.00000000000E+00 0.0000E+00 -1.0
#  0.2087161E+03  0.2087161E+03  0.4091750E+02  0.4533736E+02
</event>
<event>
 4 0  4.9130000E+00  2.2349170E+02  7.9577470E-02  1.1381550E-01
      21   -1    0    0  503  502  0.00000000000E+00  0.00000000000E+00  1.16384611780E+03  1.16384611780E+03  0.00000000000E+00 0.0000E+00 -1.0
      21   -1    0    0  501  503  0.00000000000E+00  0.00000000000E+00 -5.89635270400E+01  5.89635270400E+01  0.00000000000E+00 0.0000E+00  1.0
       6    1    1    2  501    0 -4.77348817390E+01 -1.33841975740E+02  2.33485531590E+02  3.23208967800E+02  1.72500000000E+02 0.0000E+00 -1.0
      -6    1    1    2    0  502  4.77348817390E+01  1.33841975740E+02  8.71397059170E+02  8.99600677040E+02  1.72500000000E+02 0.0000E+00  1.0
#  0.2234917E+03  0.2234917E+03
</event>
<event>
 4 0  4.9130000E+00  2.4011760E+02  7.9577470E-02  1.1269260E-01
      21   -1    0    0  501  502  0.00000000000E+00  0.00000000000E+00  1.20914814880E+02  1.20914814880E+02  0.00000000000E+00 0.0000E+00  1.0
      21   -1    0    0  502  503  0.00000000000E+00  0.00000000000E+00 -7.68199557610E+02  7.68199557610E+02  0.00000000000E+00 0.0000E+00  1.0
       6    1    1    2  501    0 -1.64102634070E+02 -3.11535723180E+01 -4.98580098090E+01  2.45239251990E+02  1.72500000000E+02 0.0000E+00  1.0
      -6    1    1    2    0  503  1.64102634070E+02  3.11535723180E+01 -5.97426732920E+02  6.43875120490E+02  1.72500000000E+02 0.0000E+00  1.0
#  0.2401176E+03  0.2401176E+03
</event>
<event>
 6 2  4.9130000E+00  3.0875490E+02  7.9577470E-02  1.0892680E-01
      21   -1    0    0  504  503  0.00000000000E+00  0.00000000000E+00  2.25223211130E+02  2.25223211130E+02  0.00000000000E+00 0.0000E+00 -1.0
       2   -1    0    0  501    0  0.00000000000E+00  0.00000000000E+00 -1.21102308840E+03  1.21102308840E+03  0.00000000000E+00 0.0000E+00 -1.0
       6    1    1    2  501    0  2.16511559220E+02 -1.37656897520E+02 -6.64334056650E+01  3.16221953850E+02  1.72500000000E+02 0.0000E+00 -1.0
      -6    1    1    2    0  503 -1.99072020590E+02  1.62326743090E+02 -1.96217079310E+02  3.66383723870E+02  1.72500000000E+02 0.0000E+00 -1.0
      21    1    1    2  504  502  1.13949429360E+01  1.81732051690E+01  6.30722565870E+00  2.23582469380E+01  0.00000000000E+00 0.0000E+00 -1.0
       2    1    1    2  502    0 -2.88344815640E+01 -4.28430507360E+01 -7.29456617920E+02  7.31282374840E+02  0.00000000000E+00 0.0000E+00 -1.0
#  0.3087549E+03  0.3087549E+03  0.2145018E+02  0.5154976E+02
</event>
<event>
 5 1  4.9130000E+00  1.8017970E+02  7.9577470E-02  1.1732550E-01
       1   -1    0    0  503    0  0.00000000000E+00  0.00000000000E+00  7.49657792700E+02  7.49657792700E+02  0.00000000000E+00 0.0000E+00  1.0
      21   -1    0    0  501  503  0.00000000000E+00  0.00000000000E+00 -1.14428228020E+02  1.14428228020E+02  0.00000000000E+00 0.0000E+00  1.0
       6    1    1    2  501    0  5.58107702810E+01  2.78973954760E+01  9.29244125770E+01  2.05631474260E+02  1.72500000000E+02 0.0000E+00  1.0
      -6    1    1    2    0  502 -4.53812632770E+01  7.95986056250E-01  8.05918226200E+01  1.95732941850E+02  1.72500000000E+02 0.0000E+00 -1.0
       1    1    1    2  502    0 -1.04295070040E+01 -2.86933815320E+01  4.61713329480E+02  4.62721604620E+02  0.00000000000E+00 0.0000E+00  1.0
#  0.1801797E+03  0.1801797E+03  0.3053006E+02
</event>
<event>
 4 0  4.9130000E+00  1.8002060E+02  7.9577470E-02  1.1734040E-01
      21   -1    0    0  501  502  0.00000000000E+00  0.00000000000E+00  1.02333281080E+02  1.02333281080E+02  0.00000000000E+00 0.0000E+00 -1.0
      21   -1    0    0  502  503  0.00000000000E+00  0.00000000000E+00 -3.16750496060E+02  3.16750496060E+02  0.00000000000E+00 0.0000E+00 -1.0
       6    1    1    2  501    0 -4.72369590740E+01  2.04895385110E+01 -1.04192402370E+02  2.07998697600E+02  1.72500000000E+02 0.0000E+00  1.0
      -6    1    1    2    0  503  4.72369590740E+01 -2.04895385110E+01 -1.10224812620E+02  2.11085079550E+02  1.72500000000E+02 0.0000E+00  1.0
#  0.1800206E+03  0.1800206E+03
</event>
<event>
 4 0  4.9130000E+00  1.8970840E+02  7.9577470E-02  1.1646630E-01
      21   -1    0    0  503  502  0.00000000000E+00  0.00000000000E+00  3.00279674710E+02  3.00279674710E+02  0.00000000000E+00 0.0000E+00 -1.0
      21   -1    0    0  501  503  0.00000000000E+00  0.00000000000E+00 -1.44208062300E+02  1.44208062300E+02  0.00000000000E+00 0.0000E+00 -1.0
       6    1    1    2  501    0 -6.95381416760E+01 -3.73827080820E+01 -1.32985325390E+01  1.90173922970E+02  1.72500000000E+02 0.0000E+00 -1.0
      -6    1    1    2    0  502  6.95381416760E+01  3.73827080820E+01  1.69370144950E+02  2.54313814040E+02  1.72500000000E+02 0.0000E+00 -1.0
#  0.1897084E+03  0.1897084E+03
</event>
<event>
 5 1  4.9130000E+00  2.2017340E+02  7.9577470E-02  1.1405250E-01
      21   -1    0    0  503  502  0.00000000000E+00  0.00000000000E+00  2.55457991900E+02  2.55457991900E+02  0.00000000000E+00 0.0000E+00  1.0
      21   -1    0    0  504  503  0.00000000000E+00  0.00000000000E+00 -3.51158710260E+02  3.51158710260E+02  0.00000000000E+00 0.0000E+00  1.0
       6    1    1    2  501    0  2.23226011610E+01  1.37943991580E+02  9.32720379600E+01  2.40796109600E+02  1.72500000000E+02 0.0000E+00 -1.0
      -6    1    1    2    0  502 -3.89098751460E+01 -1.26473131380E+02 -4.70082689920E+01  2.22430795300E+02  1.72500000000E+02 0.0000E+00 -1.0
      21    1    1    2  504  501  1.65872739850E+01 -1.14708601940E+01 -1.41964487340E+02  1.43389797250E+02  0.00000000000E+00 0.0000E+00  1.0
#  0.2201734E+03  0.2201734E+03  0.2016726E+02
</event>
<event>
 7 3  4.9130000E+00  2.0171320E+02  7.9577470E-02  1.1545950E-01
      21   -1    0    0  505  503  0.00000000000E+00  0.00000000000E+00  9.24438903680E+02  9.24438903680E+02  0.00000000000E+00 0.0000E+00 -1.0
      -3   -1    0    0    0  501  0.00000000000E+00  0.00000000000E+00 -9.10452550180E+01  9.10452550180E+01  0.00000000000E+00 0.0000E+00  1.0
       6    1    1    2  502    0 -5.91214030170E+00 -6.34793179480E+01  2.88275922610E+02  3.41941273860E+02  1.72500000000E+02 0.0000E+00 -1.0
      -6    1    1    2    0  501 -6.88144116240E+01  1.40540643520E+02  4.16830699840E+02  4.77484217600E+02  1.72500000000E+02 0.0000E+00  1.0
      21    1    1    2  504  503  1.99086264890E+01 -4.70834230870E+01  4.72959098970E+01  6.96426968980E+01  0.00000000000E+00 0.0000E+00 -1.0
      21    1    1    2  505  502  1.63290306300E+01 -1.82512624320E+01  8.25941729660E+01  8.61483791470E+01  0.00000000000E+00 0.0000E+00 -1.0
      -3    1    1    2    0  504  3.84888948070E+01 -1.17266400490E+01 -1.60305664920E+00  4.02675911990E+01  0.00000000000E+00 0.0000E+00  1.0
#  0.2017132E+03  0.2017132E+03  0.5760089E+02  0.2448971E+02  0.4071859E+02
</event>
<event>
 7 3  4.9130000E+00  2.5320860E+02  7.9577470E-02  1.1187590E-01
      -3   -1    0    0    0  501  0.00000000000E+00  0.00000000000E+00  3.76648288240E+02  3.76648288240E+02  0.00000000000E+00 0.0000E+00 -1.0
      21   -1    0    0  502  503  0.00000000000E+00  0.00000000000E+00 -5.87940988340E+02  5.87940988340E+02  0.00000000000E+00 0.0000E+00  1.0
       6    1    1    2  502    0  4.56171610480E+01  1.16442640990E+02 -1.34381993200E+02  2.51901933540E+02  1.72500000000E+02 0.0000E+00  1.0
      -6    1    1    2    0  501  4.54357582410E+01  1.27365486400E+01  1.67700825790E+01  1.79622140810E+02  1.72500000000E+02 0.0000E+00 -1.0
      21    1    1    2  504  503  9.60366371640E+01 -5.57417724940E+01 -2.09196637980E+02  2.36840482640E+02  0.00000000000E+00 0.0000E+00 -1.0
      21    1    1    2  505  504  3.08320310370E+01  9.55929745680E+00 -6.66910745730E+00  3.29616640960E+01  0.00000000000E+00 0.0000E+00  1.0
      -3    1    1    2    0  505 -2.17921587490E+02 -8.29967145970E+01  1.22184955960E+02  2.63263055500E+02  0.00000000000E+00 0.0000E+00 -1.0
#  0.2532086E+03  0.1893107E+03  0.1118765E+03  0.3227994E+02  0.1853600E+03
</event>
<event>
 6 2  4.9130000E+00  2.0077320E+02  7.9577470E-02  1.1553560E-01
       3   -1    0    0  504    0  0.00000000000E+00  0.00000000000E+00  3.01190510250E+02  3.01190510250E+02  0.00000000000E+00 0.0000E+00  1.0
      21   -1    0    0  502  503  0.00000000000E+00  0.00000000000E+00 -4.22547105590E+02  4.22547105590E+02  0.00000000000E+00 0.0000E+00  1.0
       6    1    1    2  501    0 -1.58756601490E+02  3.29383851070E+01  2.17411597330E+01  2.37734145120E+02  1.72500000000E+02 0.0000E+00  1.0
      -6    1    1    2    0  503  7.67444467030E+01 -4.59053715650E+01 -2.58370186130E+02  3.23277614930E+02  1.72500000000E+02 0.0000E+00  1.0
      21    1    1    2  504  501  1.13608588720E+01 -2.26384477850E+01  6.29994687100E+01  6.79006737090E+01  0.00000000000E+00 0.0000E+00  1.0
       3    1    1    2  502    0  7.06512959180E+01  3.56054342430E+01  5.22729623510E+01  9.48251820740E+01  0.00000000000E+00 0.0000E+00  1.0
#  0.2007732E+03  0.2007732E+03  0.2532920E+02  0.7949645E+02
</event>
<event>
 4 0  4.9130000E+00  2.5846990E+02  7.9577470E-02  1.1156270E-01
      21   -1    0    0  501  502  0.00000000000E+00  0.00000000000E+00  9.01761376880E+02  9.01761376880E+02  0.00000000000E+00 0.0000E+00 -1.0
      21   -1    0    0  502  503  0.00000000000E+00  0.00000000000E+00 -8.79532444050E+01  8.79532444050E+01  0.00000000000E+00 0.0000E+00 -1.0
       6    1    1    2  501    0  1.92481409670E+02 -1.15580180720E+00  6.03407539310E+02  6.56435326170E+02  1.72500000000E+02 0.0000E+00 -1.0
      -6    1    1    2    0  503 -1.92481409670E+02  1.15580180720E+00  2.10400593160E+02  3.33279295110E+02  1.72500000000E+02 0.0000E+00 -1.0
#  0.2584699E+03  0.2584699E+03
</event>
<event>
 7 3  4.9130000E+00  2.4926400E+02  7.9577470E-02  1.1211620E-01
      21   -1    0    0  505  503  0.00000000000E+00  0.00000000000E+00  5.00687692980E+02  5.00687692980E+02  0.00000000000E+00 0.0000E+00  1.0
       2   -1    0    0  503    0  0.00000000000E+00  0.00000000000E+00 -1.50786656490E+03  1.50786656490E+03  0.00000000000E+00 0.0000E+00 -1.0
       6    1    1    2  501    0 -4.77534003000E+01  4.77781024520E+01 -3.40562651280E+01  1.88359267120E+02  1.72500000000E+02 0.0000E+00 -1.0
      -6    1    1    2    0  504  5.08106127670E+00 -2.92225391990E+00  4.93235219480E+01  1.79508820310E+02  1.72500000000E+02 0.0000E+00  1.0
      21    1    1    2  504  502  6.05117434660E+01  1.68634293760E+01 -1.31397820270E+02  1.45641455360E+02  0.00000000000E+00 0.0000E+00  1.0
      21    1    1    2  505  501 -1.37170941790E+02  5.99190913850E+01  2.76879752870E+02  3.14751588300E+02  0.00000000000E+00 0.0000E+00  1.0
       2    1    1    2  502    0  1.19331537350E+02 -1.21638369290E+02 -1.16792806140E+03  1.18029312680E+03  0.00000000000E+00 0.0000E+00 -1.0
#  0.2492640E+03  0.1879182E+03  0.6281756E+02  0.1490144E+03  0.1799341E+03
</event>
<event>
 4 0  4.9130000E+00  1.8204220E+02  7.9577470E-02  1.1715310E-01
      21   -1    0    0  503  502  0.00000000000E+00  0.00000000000E+00  4.41730011530E+01  4.41730011530E+01  0.00000000000E+00 0.0000E+00 -1.0
      21   -1    0    0  501  503  0.00000000000E+00  0.00000000000E+00 -9.91063056550E+02  9.91063056550E+02  0.00000000000E+00 0.0000E+00 -1.0
       6    1    1    2  501    0 -2.24008432240E+01 -5.36777388560E+01 -7.28614253450E+02  7.51011369930E+02  1.72500000000E+02 0.0000E+00 -1.0
      -6    1    1    2    0  502  2.24008432240E+01  5.36777388560E+01 -2.18275801940E+02  2.84224687770E+02  1.72500000000E+02 0.0000E+00 -1.0
#  0.1820422E+03  0.1820422E+03
</event>
<event>
 4 0  4.9130000E+00  2.0494150E+02  7.9577470E-02  1.1520180E-01
      21   -1    0    0  501  502  0.00000000000E+00  0.00000000000E+00  1.31975805570E+02  1.31975805570E+02  0.00000000000E+00 0.0000E+00 -1.0
      21   -1    0    0  502  503  0.00000000000E+00  0.00000000000E+00 -3.72419631880E+02  3.72419631880E+02  0.00000000000E+00 0.0000E+00 -1.0
       6    1    1    2  501    0 -8.53351541510E+01 -7.04464014310E+01 -2.40361277460E+01  2.06346236810E+02  1.72500000000E+02 0.0000E+00 -1.0
      -6    1    1    2    0  503  8.53351541510E+01  7.04464014310E+01 -2.16407698550E+02  2.98049200640E+02  1.72500000000E+02 0.0000E+00 -1.0
#  0.2049415E+03  0.2049415E+03
</event>
<event>
 4 0  4.9130000E+00  2.7794530E+02  7.9577470E-02  1.1047030E-01
      -2   -1    0    0    0  501  0.00000000000E+00  0.00000000000E+00  6.65378348770E+01  6.65378348770E+01  0.00000000000E+00 0.0000E+00 -1.0
       2   -1    0    0  502    0  0.00000000000E+00  0.00000000000E+00 -1.16225435330E+03  1.16225435330E+03  0.00000000000E+00 0.0000E+00  1.0
       6    1    1    2  502    0 -1.19029462510E+02 -1.82563204060E+02 -5.28060035290E+02  5.96741977150E+02  1.72500000000E+02 0.0000E+00  1.0
      -6    1    1    2    0  501  1.19029462510E+02  1.82563204060E+02 -5.67656483150E+02  6.32050211050E+02  1.72500000000E+02 0.0000E+00  1.0
#  0.4691128E+03  0.4691128E+03
</event>
<event>
 5 1  4.9130000E+00  1.7479770E+02  7.9577470E-02  1.1783710E-01
      21   -1    0    0  501  502  0.00000000000E+00  0.00000000000E+00  4.21207747190E+02  4.21207747190E+02  0.00000000000E+00 0.0000E+00 -1.0
      21   -1    0    0  504  503  0.00000000000E+00  0.00000000000E+00 -1.13636711040E+02  1.13636711040E+02  0.00000000000E+00 0.0000E+00 -1.0
       6    1    1    2  501    0  3.47713369630E+00 -5.06980986000E-01  1.81290102590E+02  2.50269252580E+02  1.72500000000E+02 0.0000E+00 -1.0
      -6    1    1    2    0  503 -5.83313699540E+00 -4.16299090820E+01  3.08222214130E+01  1.80203590840E+02  1.72500000000E+02 0.0000E+00 -1.0
      21    1    1    2  504  502  2.35600329910E+00  4.21368900680E+01  9.54587121480E+01  1.04371614820E+02  0.00000000000E+00 0.0000E+00  1.0
#  0.1747977E+03  0.1747977E+03  0.4220270E+02
</event>
<event>
 5 1  4.9130000E+00  2.0019310E+02  7.9577470E-02  1.1558270E-01
      21   -1    0    0  502  503  0.00000000000E+00  0.00000000000E+00  2.51447861770E+02  2.51447861770E+02  0.00000000000E+00 0.0000E+00 -1.0
       1   -1    0    0  501    0  0.00000000000E+00  0.00000000000E+00 -9.47579374130E+02  9.47579374130E+02  0.00000000000E+00 0.0000E+00 -1.0
       6    1    1    2  501    0 -6.12515892010E+01  2.69228359510E+01  4.06936570610E+01  1.89443448030E+02  1.72500000000E+02 0.0000E+00 -1.0
      -6    1    1    2    0  503  1.62979164710E+02  5.75044605360E+01  1.65070536320E+01  2.44740074230E+02  1.72500000000E+02 0.0000E+00 -1.0
       1    1    1    2  502    0 -1.01727575510E+02 -8.44272964870E+01 -7.53332223060E+02  7.64843713650E+02  0.00000000000E+00 0.0000E+00 -1.0
#  0.2001931E+03  0.2001931E+03  0.1321986E+03
</event>
<event>
 7 3  4.9130000E+00  2.0204610E+02  7.9577470E-02  1.1543270E-01
      21   -1    0    0  504  503  0.00000000000E+00  0.00000000000E+00  6.75669659730E+01  6.75669659730E+01  0.00000000000E+00 0.0000E+00  1.0
       2   -1    0    0  501    0  0.00000000000E+00  0.00000000000E+00 -1.64396397000E+03  1.64396397000E+03  0.00000000000E+00 0.0000E+00  1.0
       6    1    1    2  501    0  7.18193314510E+01  4.97251793490E+01 -2.15829296190E+02  2.89774299970E+02  1.72500000000E+02 0.0000E+00  1.0
      -6    1    1    2    0  503 -1.24545191570E+02 -2.05993622450E+01 -4.60490622170E+02  5.07684647760E+02  1.72500000000E+02 0.0000E+00  1.0
      21    1    1    2  504  505  2.00982070740E+01  1.58797651430E+01 -2.80157701950E+01  3.79603510020E+01  0.00000000000E+00 0.0000E+00 -1.0
      21    1    1    2  505  502  2.33979585610E+01 -2.05137154860E+01 -1.33180548030E+02  1.36767449930E+02  0.00000000000E+00 0.0000E+00  1.0
       2    1    1    2  502    0  9.22969448430E+00 -2.44918667600E+01 -7.38880767500E+02  7.39344187360E+02  0.00000000000E+00 0.0000E+00  1.0
#  0.2020461E+03  0.2020461E+03  0.2561454E+02  0.3477322E+02  0.2614463E+02
</event>
<event>
 6 2  4.9130000E+00  1.8402600E+02  7.9577470E-02  1.1697180E-01
       2   -1    0    0  501    0  0.00000000000E+00  0.00000000000E+00  1.44632902560E+03  1.44632902560E+03  0.00000000000E+00 0.0000E+00  1.0
      21   -1    0    0  502  503  0.00000000000E+00  0.00000000000E+00 -4.73173367750E+01  4.73173367750E+01  0.00000000000E+00 0.0000E+00  1.0
       6    1    1    2  501    0 -4.84137854890E+01 -7.44373001650E+01  4.76113364180E+02  5.14125463120E+02  1.72500000000E+02 0.0000E+00  1.0
      -6    1    1    2    0  504  2.30325203920E+01  3.74659056560E+01  3.23722767930E+02  3.69441296500E+02  1.72500000000E+02 0.0000E+00  1.0
      21    1    1    2  504  503 -2.32774485550E+01  2.27591017100E+01  5.78119575240E+01  6.63478617180E+01  0.00000000000E+00 0.0000E+00  1.0
       2    1    1    2  502    0  4.86587136520E+01  1.42122927990E+01  5.41363599200E+02  5.43731741040E+02  0.00000000000E+00 0.0000E+00  1.0
#  0.1840260E+03  0.1840260E+03  0.3255482E+02  0.5025881E+02
</event>
<event>
 4 0  4.9130000E+00  1.9016230E+02  7.9577470E-02  1.1642680E-01
      -1   -1    0    0    0  501  0.00000000000E+00  0.00000000000E+00  3.52332374810E+01  3.52332374810E+01  0.00000000000E+00 0.0000E+00 -1.0
       1   -1    0    0  502    0  0.00000000000E+00  0.00000000000E+00 -1.03834030370E+03  1.03834030370E+03  0.00000000000E+00 0.0000E+00  1.0
       6    1    1    2  502    0  7.91786469240E+01 -1.16699965620E+01 -4.43874985600E+02  4.82894087550E+02  1.72500000000E+02 0.0000E+00  1.0
      -6    1    1    2    0  501 -7.91786469240E+01  1.16699965620E+01 -5.59232080610E+02  5.90679453620E+02  1.72500000000E+02 0.0000E+00  1.0
#  0.2388883E+03  0.2388883E+03
</event>
<event>
 5 1  4.9130000E+00  2.5620230E+02  7.9577470E-02  1.1169670E-01
       2   -1    0    0  501    0  0.00000000000E+00  0.00000000000E+00  5.15269445030E+02  5.15269445030E+02  0.00000000000E+00 0.0000E+00  1.0
      21   -1    0    0  502  503  0.00000000000E+00  0.00000000000E+00 -8.57182081880E+02  8.57182081880E+02  0.00000000000E+00 0.0000E+00 -1.0
       6    1    1    2  501    0  3.64879703370E+01  1.82750562460E+02 -6.75377159450E+02  7.21539810110E+02  1.72500000000E+02 0.0000E+00 -1.0
      -6    1    1    2    0  503 -2.02683845330E+01 -2.04357768470E+02 -4.46032908160E+01  2.71879768460E+02  1.72500000000E+02 0.0000E+00 -1.0
       2    1    1    2  502    0 -1.62195858040E+01  2.16072060090E+01  3.78067813420E+02  3.79031948340E+02  0.00000000000E+00 0.0000E+00  1.0
#  0.2562023E+03  0.2562023E+03  0.2701752E+02
</event>
<event>
 4 0  4.9130000E+00  1.8038270E+02  7.9577470E-02  1.1730660E-01
      21   -1    0    0  501  502  0.00000000000E+00  0.00000000000E+00  1.80778323490E+02  1.80778323490E+02  0.00000000000E+00 0.0000E+00  1.0
      21   -1    0    0  502  503  0.00000000000E+00  0.00000000000E+00 -1.82277661920E+02  1.82277661920E+02  0.00000000000E+00 0.0000E+00  1.0
       6    1    1    2  501    0  3.96043903300E+00  5.25924986680E+01  1.95961214640E+01  1.81443969230E+02  1.72500000000E+02 0.0000E+00  1.0
      -6    1    1    2    0  503 -3.96043903300E+00 -5.25924986680E+01 -2.10954598910E+01  1.81612016180E+02  1.72500000000E+02 0.0000E+00  1.0
#  0.1803827E+03  0.1803827E+03
</event>
<event>
 4 0  4.9130000E+00  2.0276110E+02  7.9577470E-02  1.1537530E-01
      21   -1    0    0  503  502  0.00000000000E+00  0.00000000000E+00  3.69158393930E+02  3.69158393930E+02  0.00000000000E+00 0.0000E+00 -1.0
      21   -1    0    0  501  503  0.00000000000E+00  0.00000000000E+00 -1.13223728720E+02  1.13223728720E+02  0.00000000000E+00 0.0000E+00 -1.0
       6    1    1    2  501    0  9.25736686630E+00 -1.06160819560E+02  9.70811000310E+01  2.24803933320E+02  1.72500000000E+02 0.0000E+00 -1.0
      -6    1    1    2    0  502 -9.25736686630E+00  1.06160819560E+02  1.58853565170E+02  2.57578189330E+02  1.72500000000E+02 0.0000E+00 -1.0
#  0.2027611E+03  0.2027611E+03
</event>
<event>
 7 3  4.9130000E+00  2.7603490E+02  7.9577470E-02  1.1057310E-01
      21   -1    0    0  504  503  0.00000000000E+00  0.00000000000E+00  2.96745977630E+02  2.96745977630E+02  0.00000000000E+00 0.0000E+00  1.0
       2   -1    0    0  501    0  0.00000000000E+00  0.00000000000E+00 -1.60439958210E+03  1.60439958210E+03  0.00000000000E+00 0.0000E+00 -1.0
       6    1    1    2  501    0  4.53964869260E+01 -2.20318410940E+02 -5.06302816730E+02  5.80258421270E+02  1.72500000000E+02 0.0000E+00 -1.0
      -6    1    1    2    0  503 -6.49977938150E+01  1.91537293310E+02 -3.50950068650E+02  4.40265202590E+02  1.72500000000E+02 0.0000E+00 -1.0
      21    1    1    2  504  505  4.61034565530E+01  2.14222355650E+01  1.18619648210E+02  1.29054491690E+02  0.00000000000E+00 0.0000E+00 -1.0
      21    1    1    2  505  502 -6.23119028920E+00  6.72125026810E+01  7.70376016690E+01  1.02426267720E+02  0.00000000000E+00 0.0000E+00  1.0
       2    1    1    2  502    0 -2.02709593740E+01 -5.98536206180E+01 -6.46057968970E+02  6.49141176450E+02  0.00000000000E+00 0.0000E+00 -1.0
#  0.2760349E+03  0.2760349E+03  0.5083740E+02  0.7884295E+02  0.6288120E+02
</event>
<event>
 4 0  4.9130000E+00  3.7961970E+02  7.9577470E-02  1.0601530E-01
      21   -1    0    0  501  502  0.00000000000E+00  0.00000000000E+00  8.58560431890E+02  8.58560431890E+02  0.00000000000E+00 0.0000E+00  1.0
      21   -1    0    0  502  503  0.00000000000E+00  0.00000000000E+00 -2.30271500900E+02  2.30271500900E+02  0.00000000000E+00 0.0000E+00 -1.0
       6    1    1    2  501    0  2.74948623300E+02 -1.96870797610E+02  5.97590783160E+02  7.07973057760E+02  1.72500000000E+02 0.0000E+00  1.0
      -6    1    1    2    0  503 -2.74948623300E+02  1.96870797610E+02  3.06981478290E+01  3.80858875020E+02  1.72500000000E+02 0.0000E+00 -1.0
#  0.3796197E+03  0.3796197E+03
</event>
<event>
 6 2  4.9130000E+00  1.9359010E+02  7.9577470E-02  1.1613200E-01
      21   -1    0    0  502  503  0.00000000000E+00  0.00000000000E+00  1.01512011820E+02  1.01512011820E+02  0.00000000000E+00 0.0000E+00 -1.0
       2   -1    0    0  501    0  0.00000000000E+00  0.00000000000E+00 -1.07637199100E+03  1.07637199100E+03  0.00000000000E+00 0.0000E+00  1.0
       6    1    1    2  501    0 -3.19650294810E+01  1.32320025280E+02 -3.89318770890E+02  4.47052242540E+02  1.72500000000E+02 0.0000E+00 -1.0
      -6    1    1    2    0  504  8.69185790360E+01 -1.01061014550E+01 -4.59943320980E+02  4.98959999580E+02  1.72500000000E+02 0.0000E+00  1.0
      21    1    1    2  504  503 -2.16211274810E+01  1.74857639410E+01  1.43931856020E+01  3.13111623220E+01  0.00000000000E+00 0.0000E+00  1.0
       2    1    1    2  502    0 -3.33324220740E+01 -1.39699687760E+02 -1.39991072910E+02  2.00560598360E+02  0.00000000000E+00 0.0000E+00  1.0
#  0.2578142E+03  0.2578142E+03  0.2780693E+02  0.1393400E+03
</event>
<event>
 5 1  4.9130000E+00  2.0733050E+02  7.9577470E-02  1.1501450E-01
      21   -1    0    0  504  502  0.00000000000E+00  0.00000000000E+00  2.07687823500E+02  2.07687823500E+02  0.00000000000E+00 0.0000E+00 -1.0
      21   -1    0    0  502  503  0.00000000000E+00  0.00000000000E+00 -2.95340958740E+02  2.95340958740E+02  0.00000000000E+00 0.0000E+00 -1.0
       6    1    1    2  501    0  8.88946769720E+01 -6.87937265770E+01 -7.51254385100E+01  2.19168706530E+02  1.72500000000E+02 0.0000E+00 -1.0
      -6    1    1    2    0  503 -1.15435000980E+02  3.77919567730E+01 -6.18409033450E+01  2.19849991530E+02  1.72500000000E+02 0.0000E+00 -1.0
      21    1    1    2  504  501  2.65403240080E+01  3.10017698040E+01  4.93132066210E+01  6.40100841790E+01  0.00000000000E+00 0.0000E+00  1.0
#  0.2073305E+03  0.2073305E+03  0.4081052E+02
</event>
<event>
 4 0  4.9130000E+00  1.8550990E+02  7.9577470E-02  1.1683790E-01
      21   -1    0    0  501  502  0.00000000000E+00  0.00000000000E+00  6.18886945260E+01  6.18886945260E+01  0.00000000000E+00 0.0000E+00 -1.0
      21   -1    0    0  502  503  0.00000000000E+00  0.00000000000E+00 -5.61601201780E+02  5.61601201780E+02  0.00000000000E+00 0.0000E+00  1.0
       6    1    1    2  501    0  5.16149814270E+01 -4.46492589150E+01 -2.18893935500E+02  2.86929377430E+02  1.72500000000E+02 0.0000E+00 -1.0
      -6    1    1    2    0  503 -5.16149814270E+01  4.46492589150E+01 -2.80818571750E+02  3.36560518880E+02  1.72500000000E+02 0.0000E+00 -1.0
#  0.1855099E+03  0.1855099E+03
</event>
<event>
 5 1  4.9130000E+00  2.2180230E+02  7.9577470E-02  1.1393560E-01
      21   -1    0    0  503  502  0.00000000000E+00  0.00000000000E+00  6.18771300420E+01  6.18771300420E+01  0.00000000000E+00 0.0000E+00 -1.0
      21   -1    0    0  504  503  0.00000000000E+00  0.00000000000E+00 -1.42579163330E+03  1.42579163330E+03  0.00000000000E+00 0.0000E+00 -1.0
       6    1    1    2  501    0 -1.61381290870E+02  8.61000075480E+00 -3.37639560190E+02  4.12158677890E+02  1.72500000000E+02 0.0000E+00 -1.0
      -6    1    1    2    0  502  1.09492591460E+02 -3.23399532780E+01 -4.37085487320E+02  4.83564342550E+02  1.72500000000E+02 0.0000E+00 -1.0
      21    1    1    2  504  501  5.18886994100E+01  2.37299525240E+01 -5.89189455790E+02  5.91945742940E+02  0.00000000000E+00 0.0000E+00  1.0
#  0.2218023E+03  0.2218023E+03  0.5705741E+02
</event>
<event>
 6 2  4.9130000E+00  2.0879580E+02  7.9577470E-02  1.1490090E-01
       1   -1    0    0  501    0  0.00000000000E+00  0.00000000000E+00  3.91404143370E+02  3.91404143370E+02  0.00000000000E+00 0.0000E+00 -1.0
      21   -1    0    0  504  503  0.00000000000E+00  0.00000000000E+00 -6.50392392730E+02  6.50392392730E+02  0.00000000000E+00 0.0000E+00  1.0
       6    1    1    2  501    0  1.10639845720E+02 -3.77058851880E+01 -3.30735833760E+02  3.90903250140E+02  1.72500000000E+02 0.0000E+00  1.0
      -6    1    1    2    0  503 -1.04877005450E+02  3.66539429600E+01 -1.96297771030E+02  2.83957325520E+02  1.72500000000E+02 0.0000E+00  1.0
      21    1    1    2  504  502  9.92256875220E+00 -3.75465147150E+01 -4.01957501930E+01  5.58918283060E+01  0.00000000000E+00 0.0000E+00  1.0
       1    1    1    2  502    0 -1.56854090300E+01  3.85984569430E+01  3.08241105620E+02  3.11044132120E+02  0.00000000000E+00 0.0000E+00 -1.0
#  0.2087958E+03  0.2087958E+03  0.3883553E+02  0.4157418E+02
</event>
<event>
 7 3  4.9130000E+00  1.8622240E+02  7.9577470E-02  1.1677410E-01
       2   -1    0    0  505    0  0.00000000000E+00  0.00000000000E+00  1.12954938490E+03  1.12954938490E+03  0.00000000000E+00 0.0000E+00 -1.0
      21   -1    0    0  501  503  0.00000000000E+00  0.00000000000E+00 -1.93995594530E+02  1.93995594530E+02  0.00000000000E+00 0.0000E+00  1.0
       6    1    1    2  501    0 -1.05311640200E+01  6.61359779600E+01  1.58274896300E+02  2.43499621750E+02  1.72500000000E+02 0.0000E+00 -1.0
      -6    1    1    2    0  504 -6.82596427650E+01 -3.90779299320E+01  8.07853390150E+00  1.89757677440E+02  1.72500000000E+02 0.0000E+00  1.0
      21    1    1    2  504  502  4.88892034680E+01 -1.20113711220E+01  3.31391636700E+02  3.35193741180E+02  0.00000000000E+00 0.0000E+00  1.0
      21    1    1    2  505  503 -1.15318231730E+01 -1.77250552760E+01 -5.58360453680E+01  5.97061512120E+01  0.00000000000E+00 0.0000E+00  1.0
       2    1    1    2  502    0  4.14334264910E+01  2.67837836940E+00  4.93644768800E+02  4.95387787810E+02  0.00000000000E+00 0.0000E+00 -1.0
#  0.1862224E+03  0.1862224E+03  0.2777364E+02  0.2114617E+02  0.9563015E+02
</event>
<event>
 4 0  4.9130000E+00  2.2794290E+02  7.9577470E-02  1.1350470E-01
      21   -1    0    0  501  502  0.00000000000E+00  0.00000000000E+00  9.83957030960E+01  9.83957030960E+01  0.00000000000E+00 0.0000E+00  1.0
      21   -1    0    0  502  503  0.00000000000E+00  0.00000000000E+00 -8.97067634560E+02  8.97067634560E+02  0.00000000000E+00 0.0000E+00  1.0
       6    1    1    2  501    0  1.48103717270E+02 -1.63401919140E+01 -8.01045887790E+01  2.41608584460E+02  1.72500000000E+02 0.0000E+00  1.0
      -6    1    1    2    0  503 -1.48103717270E+02  1.63401919140E+01 -7.18567342690E+02  7.53854753200E+02  1.72500000000E+02 0.0000E+00  1.0
#  0.2279429E+03  0.2279429E+03
</event>
<event>
 7 3  4.9130000E+00  2.0108620E+02  7.9577470E-02  1.1551020E-01
       2   -1    0    0  504    0  0.00000000000E+00  0.00000000000E+00  5.60871645140E+02  5.60871645140E+02  0.00000000000E+00 0.0000E+00  1.0
      21   -1    0    0  501  503  0.00000000000E+00  0.00000000000E+00 -4.99646801560E+02  4.99646801560E+02  0.00000000000E+00 0.0000E+00  1.0
       6    1    1    2  501    0 -1.45950504800E+02  3.23206552910E+01 -2.47333823650E+02  3.36565662140E+02  1.72500000000E+02 0.0000E+00  1.0
      -6    1    1    2    0  505  4.85439766110E+01 -2.77503590640E+01  2.31294330570E+01  1.82805417770E+02  1.72500000000E+02 0.0000E+00 -1.0
      21    1    1    2  504  503  3.52022263280E+01 -2.16945632360E+01 -1.19241567970E+02  1.26207774500E+02  0.00000000000E+00 0.0000E+00  1.0
      21    1    1    2  505  502  3.23625379520E+01 -3.41924438030E+00  5.90362780780E+01  6.74114769470E+01  0.00000000000E+00 0.0000E+00  1.0
       2    1    1    2  502    0  2.98417639080E+01  2.05435113890E+01  3.45634524060E+02  3.47528115350E+02  0.00000000000E+00 0.0000E+00  1.0
#  0.2010862E+03  0.2010862E+03  0.4155585E+02  0.3254267E+02  0.5582921E+02
</event>
<event>
 5 1  4.9130000E+00  2.1592700E+02  7.9577470E-02  1.1436240E-01
      21   -1    0    0  501  502  0.00000000000E+00  0.00000000000E+00  2.18941290290E+02  2.18941290290E+02  0.00000000000E+00 0.0000E+00 -1.0
      21   -1    0    0  504  503  0.00000000000E+00  0.00000000000E+00 -6.78904204620E+02  6.78904204620E+02  0.00000000000E+00 0.0000E+00 -1.0
       6    1    1    2  501    0  1.08007076230E+02 -8.86265940500E+01  3.99230669410E+01  2.25544458950E+02  1.72500000000E+02 0.0000E+00 -1.0
      -6    1    1    2    0  503 -8.10773769770E+01  8.43056835720E+01 -4.07583687430E+01  2.12364036420E+02  1.72500000000E+02 0.0000E+00 -1.0
      21    1    1    2  504  502 -2.69296992490E+01  4.32091047800E+00 -4.59127612530E+02  4.59936999550E+02  0.00000000000E+00 0.0000E+00 -1.0
#  0.2159270E+03  0.2159270E+03  0.2727414E+02
</event>
<event>
 4 0  4.9130000E+00  2.0007770E+02  7.9577470E-02  1.1559210E-01
      21   -1    0    0  503  502  0.00000000000E+00  0.00000000000E+00  7.41441342460E+02  7.41441342460E+02  0.00000000000E+00 0.0000E+00  1.0
      21   -1    0    0  501  503  0.00000000000E+00  0.00000000000E+00 -5.51072330690E+01  5.51072330690E+01  0.00000000000E+00 0.0000E+00 -1.0
       6    1    1    2  501    0  1.01359072900E+02 -1.08673608990E+00  2.86481428010E+02  3.49431969420E+02  1.72500000000E+02 0.0000E+00  1.0
      -6    1    1    2    0  502 -1.01359072900E+02  1.08673608990E+00  3.99852681380E+02  4.47116606110E+02  1.72500000000E+02 0.0000E+00  1.0
#  0.2000777E+03  0.2000777E+03
</event>
<event>
 4 0  4.9130000E+00  1.8472090E+02  7.9577470E-02  1.1690890E-01
      21   -1    0    0  503  502  0.00000000000E+00  0.00000000000E+00  1.97667207260E+02  1.97667207260E+02  0.00000000000E+00 0.0000E+00 -1.0
      21   -1    0    0  501  503  0.00000000000E+00  0.00000000000E+00 -3.07073895990E+02  3.07073895990E+02  0.00000000000E+00 0.0000E+00  1.0
       6    1    1    2  501    0 -5.24345970470E+01  4.02016682990E+01 -2.21696955350E+02  2.88567758270E+02  1.72500000000E+02 0.0000E+00  1.0
      -6    1    1    2    0  502  5.24345970470E+01 -4.02016682990E+01  1.12290266630E+02  2.16173344980E+02  1.72500000000E+02 0.0000E+00 -1.0
#  0.1847209E+03  0.1847209E+03
</event>
<event>
 5 1  4.9130000E+00  1.9025260E+02  7.9577470E-02  1.1641890E-01
      21   -1    0    0  504  502  0.00000000000E+00  0.00000000000E+00  1.52479886990E+02  1.52479886990E+02  0.00000000000E+00 0.0000E+00 -1.0
      21   -1    0    0  502  503  0.00000000000E+00  0.00000000000E+00 -1.54727824040E+03  1.54727824040E+03  0.00000000000E+00 0.0000E+00  1.0
       6    1    1    2  501    0  7.16056661500E+01 -8.07982373660E+00  2.34554399740E+01  1.88411949300E+02  1.72500000000E+02 0.0000E+00 -1.0
      -6    1    1    2    0  503 -7.75333405420E+01 -2.36555006180E+01 -1.45210978620E+03  1.46456481010E+03  1.72500000000E+02 0.0000E+00  1.0
      21    1    1    2  504  501  5.92767439240E+00  3.17353243550E+01  3.38559928930E+01  4.67813679830E+01  0.00000000000E+00 0.0000E+00 -1.0
#  0.1902526E+03  0.1902526E+03  0.3228418E+02
</event>
<event>
 5 1  4.9130000E+00  1.8460400E+02  7.9577470E-02  1.1691950E-01
      21   -1    0    0  504  502  0.00000000000E+00  0.00000000000E+00  6.35016857880E+01  6.35016857880E+01  0.00000000000E+00 0.0000E+00  1.0
      21   -1    0    0  501  503  0.00000000000E+00  0.00000000000E+00 -1.23124705090E+03  1.23124705090E+03  0.00000000000E+00 0.0000E+00  1.0
       6    1    1    2  501    0 -2.86822038780E+01  4.93323122940E+01 -5.98320591260E+02  6.25300028620E+02  1.72500000000E+02 0.0000E+00  1.0
      -6    1    1    2    0  502  4.91737365370E+01 -5.73748790830E+01 -6.01642659280E+02  6.30428483320E+02  1.72500000000E+02 0.0000E+00  1.0
      21    1    1    2  504  503 -2.04915326600E+01  8.04256678830E+00  3.22178854800E+01  3.90202247060E+01  0.00000000000E+00 0.0000E+00 -1.0
#  0.1846040E+03  0.1846040E+03  0.2201331E+02
</event>
<event>
 5 1  4.9130000E+00  1.8535690E+02  7.9577470E-02  1.1685160E-01
       1   -1    0    0  501    0  0.00000000000E+00  0.00000000000E+00  8.51799890130E+02  8.51799890130E+02  0.00000000000E+00 0.0000E+00  1.0
      21   -1    0    0  502  503  0.00000000000E+00  0.00000000000E+00 -5.48118791460E+01  5.48118791460E+01  0.00000000000E+00 0.0000E+00  1.0
       6    1    1    2  501    0  1.77071193070E+00  7.98643766970E+01  2.86507140390E+02  3.43837237040E+02  1.72500000000E+02 0.0000E+00  1.0
      -6    1    1    2    0  503 -4.26627400860E+00 -5.53719613330E+01  2.97307372170E+02  3.48184116160E+02  1.72500000000E+02 0.0000E+00  1.0
       1    1    1    2  502    0  2.49556207790E+00 -2.44924153640E+01  2.13173498420E+02  2.14590416070E+02  0.00000000000E+00 0.0000E+00  1.0
#  0.1853569E+03  0.1853569E+03  0.2461923E+02
</event>
<event>
 5 1  4.9130000E+00  2.6669000E+02  7.9577470E-02  1.1108930E-01
       1   -1    0    0  503    0  0.00000000000E+00  0.00000000000E+00  9.22158344950E+02  9.22158344950E+02  0.00000000000E+00 0.0000E+00  1.0
      21   -1    0    0  501  503  0.00000000000E+00  0.00000000000E+00 -2.23769901710E+02  2.23769901710E+02  0.00000000000E+00 0.0000E+00  1.0
       6    1    1    2  501    0 -2.04395667800E+02 -8.89496661370E+01  1.06003447810E+01  2.82060719400E+02  1.72500000000E+02 0.0000E+00  1.0
      -6    1    1    2    0  502  1.77259397860E+02  3.84803724610E+01  9.40970428240E+01  2.67417532450E+02  1.72500000000E+02 0.0000E+00 -1.0
       1    1    1    2  502    0  2.71362699360E+01  5.04692936760E+01  5.93691055640E+02  5.96449994800E+02  0.00000000000E+00 0.0000E+00  1.0
#  0.2666900E+03  0.2666900E+03  0.5730207E+02
</event>
<event>
 5 1  4.9130000E+00  3.0972000E+02  7.9577470E-02  1.0888160E-01
      21   -1    0    0  501  502  0.00000000000E+00  0.00000000000E+00  4.50502573700E+02  4.50502573700E+02  0.00000000000E+00 0.0000E+00 -1.0
      21   -1    0    0  502  503  0.00000000000E+00  0.00000000000E+00 -4.39214309150E+02  4.39214309150E+02  0.00000000000E+00 0.0000E+00  1.0
       6    1    1    2  501    0  2.18416468100E+02  1.44414609560E+02  3.05061311320E+02  4.37469983720E+02  1.72500000000E+02 0.0000E+00 -1.0
      -6    1    1    2    0  504 -1.97791830690E+02 -1.32214233870E+02 -2.00021824510E+02  3.55481634130E+02  1.72500000000E+02 0.0000E+00  1.0
      21    1    1    2  504  503 -2.06246374130E+01 -1.22003756910E+01 -9.37512222510E+01  9.67652649930E+01  0.00000000000E+00 0.0000E+00 -1.0
#  0.3097200E+03  0.3097200E+03  0.2396299E+02
</event>
<event>
 5 1  4.9130000E+00  1.7620260E+02  7.9577470E-02  1.1770160E-01
      21   -1    0    0  501  502  0.00000000000E+00  0.00000000000E+00  2.69331334330E+02  2.69331334330E+02  0.00000000000E+00 0.0000E+00  1.0
      21   -1    0    0  504  503  0.00000000000E+00  0.00000000000E+00 -1.58247949580E+02  1.58247949580E+02  0.00000000000E+00 0.0000E+00  1.0
       6    1    1    2  501    0  2.94330949330E+01 -3.17776469870E+01  1.32558698950E+02  2.21820162730E+02  1.72500000000E+02 0.0000E+00 -1.0
      -6    1    1    2    0  503 -4.22432036480E+00  2.38472490070E+01 -4.30662386580E+00  1.74245037740E+02  1.72500000000E+02 0.0000E+00 -1.0
      21    1    1    2  504  502 -2.52087745680E+01  7.93039798060E+00 -1.71686903310E+01  3.15140834400E+01  0.00000000000E+00 0.0000E+00  1.0
#  0.1762026E+03  0.1762026E+03  0.2642676E+02
</event>
<event>
 4 0  4.9130000E+00  2.0730210E+02  7.9577470E-02  1.1501670E-01
      21   -1    0    0  503  502  0.00000000000E+00  0.00000000000E+00  1.89943293650E+02  1.89943293650E+02  0.00000000000E+00 0.0000E+00 -1.0
      21   -1    0    0  501  503  0.00000000000E+00  0.00000000000E+00 -2.78751182250E+02  2.78751182250E+02  0.00000000000E+00 0.0000E+00 -1.0
       6    1    1    2  501    0 -1.10135124930E+02  3.29872712360E+01 -1.46110096040E+02  2.53618445650E+02  1.72500000000E+02 0.0000E+00 -1.0
      -6    1    1    2    0  502  1.10135124930E+02 -3.29872712360E+01  5.73022074420E+01  2.15076030240E+02  1.72500000000E+02 0.0000E+00 -1.0
#  0.2073021E+03  0.2073021E+03
</event>
<event>
 5 1  4.9130000E+00  1.8551420E+02  7.9577470E-02  1.1683750E-01
      21   -1    0    0  503  502  0.00000000000E+00  0.00000000000E+00  2.67420531990E+02  2.67420531990E+02  0.00000000000E+00 0.0000E+00 -1.0
      21   -1    0    0  504  503  0.00000000000E+00  0.00000000000E+00 -5.00937495820E+02  5.00937495820E+02  0.00000000000E+00 0.0000E+00 -1.0
       6    1    1    2  501    0  4.36258181740E+01 -9.66027382280E+00 -2.40403371240E+02  2.99243318730E+02  1.72500000000E+02 0.0000E+00 -1.0
      -6    1    1    2    0  502 -6.07245325850E+01  3.83409883800E+01  1.99668864690E+02  2.73461890900E+02  1.72500000000E+02 0.0000E+00 -1.0
      21    1    1    2  504  501  1.70987144110E+01 -2.86807145580E+01 -1.92782457280E+02  1.95652818170E+02  0.00000000000E+00 0.0000E+00 -1.0
#  0.1855142E+03  0.1855142E+03  0.3339086E+02
</event>
<event>
 7 3  4.9130000E+00  2.4779450E+02  7.9577470E-02  1.1220700E-01
      21   -1    0    0  505  503  0.00000000000E+00  0.00000000000E+00  3.96238447070E+02  3.96238447070E+02  0.00000000000E+00 0.0000E+00  1.0
       2   -1    0    0  501    0  0.00000000000E+00  0.00000000000E+00 -5.41855586830E+02  5.41855586830E+02  0.00000000000E+00 0.0000E+00 -1.0
       6    1    1    2  501    0 -1.07485902370E+02 -1.89849707480E+02 -1.44966233740E+02  3.13636078220E+02  1.72500000000E+02 0.0000E+00 -1.0
      -6    1    1    2    0  503  1.22705522920E+02  1.29325149780E+02  1.25427337080E+02  2.77974651020E+02  1.72500000000E+02 0.0000E+00  1.0
      21    1    1    2  504  502 -2.60233304140E+01  1.62037782050E+01 -2.77009419420E+00  3.07806688650E+01  0.00000000000E+00 0.0000E+00 -1.0
      21    1    1    2  505  504  4.74107111360E+01 -7.16548254110E+01  5.34198333960E+01  1.01172467280E+02  0.00000000000E+00 0.0000E+00  1.0
       2    1    1    2  502    0 -3.66070012770E+01  1.15975604900E+02 -1.76727982290E+02  2.14530168510E+02  0.00000000000E+00 0.0000E+00 -1.0
#  0.2477945E+03  0.2477945E+03  0.3065577E+02  0.8032453E+02  0.1179394E+03
</event>
<event>
 4 0  4.9130000E+00  1.7956560E+02  7.9577470E-02  1.1738290E-01
       2   -1    0    0  502    0  0.00000000000E+00  0.00000000000E+00  5.29622406430E+02  5.29622406430E+02  0.00000000000E+00 0.0000E+00 -1.0
      -2   -1    0    0    0  501  0.00000000000E+00  0.00000000000E+00 -9.58408186000E+01  9.58408186000E+01  0.00000000000E+00 0.0000E+00  1.0
       6    1    1    2  502    0 -9.62042683970E+00 -4.89388196020E+01  4.05769347850E+02  4.43725787320E+02  1.72500000000E+02 0.0000E+00 -1.0
      -6    1    1    2    0  501  9.62042683970E+00  4.89388196020E+01  2.80122399780E+01  1.81737437710E+02  1.72500000000E+02 0.0000E+00  1.0
#  0.3372966E+03  0.3372966E+03
</event>
<event>
 4 0  4.9130000E+00  1.8352420E+02  7.9577470E-02  1.1701740E-01
      -2   -1    0    0    0  501  0.00000000000E+00  0.00000000000E+00  2.58208665910E+02  2.58208665910E+02  0.00000000000E+00 0.0000E+00  1.0
       2   -1    0    0  502    0  0.00000000000E+00  0.00000000000E+00 -1.57499003830E+02  1.57499003830E+02  0.00000000000E+00 0.0000E+00 -1.0
       6    1    1    2  502    0  4.20633143340E+01  4.64280337210E+01 -3.57966443720E+01  1.86982711700E+02  1.72500000000E+02 0.0000E+00 -1.0
      -6    1    1    2    0  501 -4.20633143340E+01 -4.64280337210E+01  1.36506306460E+02  2.28724958040E+02  1.72500000000E+02 0.0000E+00  1.0
#  0.2709274E+03  0.2709274E+03
</event>
<event>
 5 1  4.9130000E+00  2.6575960E+02  7.9577470E-02  1.1114190E-01
       1   -1    0    0  503    0  0.00000000000E+00  0.00000000000E+00  1.31344684530E+03  1.31344684530E+03  0.00000000000E+00 0.0000E+00 -1.0
      21   -1    0    0  501  503  0.00000000000E+00  0.00000000000E+00 -5.64200553260E+02  5.64200553260E+02  0.00000000000E+00 0.0000E+00 -1.0
       6    1    1    2  501    0 -9.58194348240E+01  1.24003569210E+02 -3.44700681580E+02  4.16092608860E+02  1.72500000000E+02 0.0000E+00 -1.0
      -6    1    1    2    0  502 -9.46402436530E+01 -5.17766003210E+01 -1.16257200000E+02  2.34327929650E+02  1.72500000000E+02 0.0000E+00  1.0
       1    1    1    2  502    0  1.90459678480E+02 -7.22269688880E+01  1.21020417360E+03  1.22722686010E+03  0.00000000000E+00 0.0000E+00 -1.0
#  0.2657596E+03  0.2034548E+03  0.2021680E+03
</event>
<event>
 5 1  4.9130000E+00  1.8998380E+02  7.9577470E-02  1.1644230E-01
      21   -1    0    0  504  502  0.00000000000E+00  0.00000000000E+00  9.26351807310E+01  9.26351807310E+01  0.00000000000E+00 0.0000E+00 -1.0
      21   -1    0    0  501  503  0.00000000000E+00  0.00000000000E+00 -4.57384804010E+02  4.57384804010E+02  0.00000000000E+00 0.0000E+00 -1.0
       6    1    1    2  501    0  8.93689693490E+01  1.24671277560E+00 -2.23178719900E+02  2.95894166880E+02  1.72500000000E+02 0.0000E+00 -1.0
      -6    1    1    2    0  502 -6.58272145280E+01 -1.22761637560E+01 -1.23876077090E+02  2.22677926260E+02  1.72500000000E+02 0.0000E+00 -1.0
      21    1    1    2  504  503 -2.35417548200E+01  1.10294509810E+01 -1.76948262890E+01  3.14478916040E+01  0.00000000000E+00 0.0000E+00 -1.0
#  0.1899838E+03  0.1899838E+03  0.2599737E+02
</event>
<event>
 6 2  4.9130000E+00  1.7523700E+02  7.9577470E-02  1.1779460E-01
      21   -1    0    0  501  503  0.00000000000E+00  0.00000000000E+00  3.17098342250E+02  3.17098342250E+02  0.00000000000E+00 0.0000E+00 -1.0
       2   -1    0    0  504    0  0.00000000000E+00  0.00000000000E+00 -5.27535381250E+02  5.27535381250E+02  0.00000000000E+00 0.0000E+00 -1.0
       6    1    1    2  501    0  5.75526871830E+01  1.56607084950E+00 -1.15955146790E+01  1.82223682160E+02  1.72500000000E+02 0.0000E+00 -1.0
      -6    1    1    2    0  502 -2.55793011630E+00  4.13798130650E+00 -6.91894579180E+01  1.85922287480E+02  1.72500000000E+02 0.0000E+00 -1.0
      21    1    1    2  504  503 -2.04162867150E+01  7.20107206290E+00  1.71611569750E+02  1.72971705990E+02  0.00000000000E+00 0.0000E+00  1.0
       2    1    1    2  502    0 -3.45784703520E+01 -1.29051242190E+01 -3.01263636150E+02  3.03516047860E+02  0.00000000000E+00 0.0000E+00 -1.0
#  0.1752370E+03  0.1752370E+03  0.2164902E+02  0.3703750E+02
</event>
<event>
 7 3  4.9130000E+00  1.8877990E+02  7.9577470E-02  1.1654760E-01
       1   -1    0    0  501    0  0.00000000000E+00  0.00000000000E+00  1.41675397660E+03  1.41675397660E+03  0.00000000000E+00 0.0000E+00  1.0
      21   -1    0    0  505  503  0.00000000000E+00  0.00000000000E+00 -5.18557097630E+02  5.18557097630E+02  0.00000000000E+00 0.0000E+00  1.0
       6    1    1    2  501    0  3.63615038050E+01  8.21405961120E+01  5.95701942670E+01  2.03406230320E+02  1.72500000000E+02 0.0000E+00  1.0
      -6    1    1    2    0  504  6.37691835770E+01 -1.44249577320E+02 -5.10876168590E+01  2.39250170170E+02  1.72500000000E+02 0.0000E+00  1.0
      21    1    1    2  504  503 -6.74540996050E+01  1.46269281330E+02 -2.74878469590E+02  3.18595246760E+02  0.00000000000E+00 0.0000E+00  1.0
      21    1    1    2  505  502 -1.54367701950E+01 -2.14745281050E+01  4.23139967450E+01  4.98991337790E+01  0.00000000000E+00 0.0000E+00  1.0
       1    1    1    2  502    0 -1.72398175830E+01 -6.26857720090E+01  1.12227877440E+03  1.12416029320E+03  0.00000000000E+00 0.0000E+00  1.0
#  0.1887799E+03  0.1887799E+03  0.1556368E+03  0.2644710E+02  0.8566731E+02
</event>
<event>
 7 3  4.9130000E+00  2.3299800E+02  7.9577470E-02  1.1316090E-01
       1   -1    0    0  501    0  0.00000000000E+00  0.00000000000E+00  7.47934573810E+02  7.47934573810E+02  0.00000000000E+00 0.0000E+00 -1.0
      21   -1    0    0  505  503  0.00000000000E+00  0.00000000000E+00 -2.20142079680E+02  2.20142079680E+02  0.00000000000E+00 0.0000E+00 -1.0
       6    1    1    2  501    0  1.54212915970E+02 -1.34624572210E+02  3.93212828230E+02  4.75686847810E+02  1.72500000000E+02 0.0000E+00  1.0
      -6    1    1    2    0  503 -5.80835999220E+01  9.93335213090E+01  1.66561506440E+02  2.65969619440E+02  1.72500000000E+02 0.0000E+00 -1.0
      21    1    1    2  504  502 -6.27308595470E+01 -2.57964298100E+01 -4.84869224340E+01  8.33762446840E+01  0.00000000000E+00 0.0000E+00 -1.0
      21    1    1    2  505  504 -3.73528057500E+01  8.37307006670E+00 -4.68703178790E+01  6.05158417100E+01  0.00000000000E+00 0.0000E+00  1.0
       1    1    1    2  502    0  3.95434924890E+00  5.27144106450E+01  6.33753997790E+01  8.25280998490E+01  0.00000000000E+00 0.0000E+00 -1.0
#  0.2329980E+03  0.2329980E+03  0.1073361E+03  0.2699898E+02  0.5286252E+02
</event>
<event>
 7 3  4.9130000E+00  1.8520770E+02  7.9577470E-02  1.1686510E-01
       2   -1    0    0  501    0  0.00000000000E+00  0.00000000000E+00  9.73326975120E+02  9.73326975120E+02  0.00000000000E+00 0.0000E+00  1.0
      21   -1    0    0  505  503  0.00000000000E+00  0.00000000000E+00 -1.52471341140E+02  1.52471341140E+02  0.00000000000E+00 0.0000E+00  1.0
       6    1    1    2  501    0 -7.74781241210E+01  3.15561421600E+00  7.03072617360E+02  7.28066049820E+02  1.72500000000E+02 0.0000E+00  1.0
      -6    1    1    2    0  503 -1.73656973780E+01 -2.50857425500E+01  8.44600671830E+01  1.94475229460E+02  1.72500000000E+02 0.0000E+00  1.0
      21    1    1    2  504  502  9.84379339300E+01  4.26478943040E+00 -2.94789749780E+01  1.02845637880E+02  0.00000000000E+00 0.0000E+00  1.0
      21    1    1    2  505  504  1.40597724310E+01  3.49772268240E+01  5.62159342400E+00  3.81141169350E+01  0.00000000000E+00 0.0000E+00  1.0
       2    1    1    2  502    0 -1.76538848630E+01 -1.73118879200E+01  5.71803309920E+01  6.22972821760E+01  0.00000000000E+00 0.0000E+00  1.0
#  0.1852077E+03  0.1852077E+03  0.1061666E+03  0.3715594E+02  0.2472572E+02
</event>
<event>
 6 2  4.9130000E+00  2.0831480E+02  7.9577470E-02  1.1493810E-01
      21   -1    0    0  502  503  0.00000000000E+00  0.00000000000E+00  1.08187220360E+03  1.08187220360E+03  0.00000000000E+00 0.0000E+00 -1.0
       2   -1    0    0  504    0  0.00000000000E+00  0.00000000000E+00 -1.80517122230E+02  1.80517122230E+02  0.00000000000E+00 0.0000E+00  1.0
       6    1    1    2  501    0  1.70087411580E+01 -1.03854767950E+02  7.92850636130E+02  8.18195264780E+02  1.72500000000E+02 0.0000E+00 -1.0
      -6    1    1    2    0  503  8.34714479130E+00  1.79079818980E+02  1.71400277960E+02  3.02115146390E+02  1.72500000000E+02 0.0000E+00  1.0
      21    1    1    2  504  501  1.96790911380E+01  1.06192357870E+01 -3.44146060360E+01  4.10414413170E+01  0.00000000000E+00 0.0000E+00 -1.0
       2    1    1    2  502    0 -4.50349770870E+01 -8.58442868210E+01 -2.84812267070E+01  1.01037473320E+02  0.00000000000E+00 0.0000E+00  1.0
#  0.2083148E+03  0.2083148E+03  0.2236146E+02  0.8871010E+02
</event>
<event>
 4 0  4.9130000E+00  1.9018140E+02  7.9577470E-02  1.1642510E-01
      -1   -1    0    0    0  501  0.00000000000E+00  0.00000000000E+00  9.34330904210E+01  9.34330904210E+01  0.00000000000E+00 0.0000E+00  1.0
       1   -1    0    0  502    0  0.00000000000E+00  0.00000000000E+00 -4.24291899170E+02  4.24291899170E+02  0.00000000000E+00 0.0000E+00 -1.0
       6    1    1    2  502    0  7.84770688830E+01  1.59390747660E+01 -8.87995287720E+01  2.09891187890E+02  1.72500000000E+02 0.0000E+00  1.0
      -6    1    1    2    0  501 -7.84770688830E+01 -1.59390747660E+01 -2.42059279970E+02  3.07833801690E+02  1.72500000000E+02 0.0000E+00 -1.0
#  0.2632544E+03  0.2632544E+03
</event>
<event>
 5 1  4.9130000E+00  2.3991940E+02  7.9577470E-02  1.1270540E-01
       1   -1    0    0  501    0  0.00000000000E+00  0.00000000000E+00  6.22008821760E+02  6.22008821760E+02  0.00000000000E+00 0.0000E+00  1.0
      21   -1    0    0  502  503  0.00000000000E+00  0.00000000000E+00 -1.01896245930E+02  1.01896245930E+02  0.00000000000E+00 0.0000E+00 -1.0
       6    1    1    2  501    0 -1.04706279210E+02 -1.15873165120E+02  1.98571180870E+02  3.05903185940E+02  1.72500000000E+02 0.0000E+00  1.0
      -6    1    1    2    0  503  1.23523682100E+02  1.24622628860E+02  3.01369928170E+02  3.89061670270E+02  1.72500000000E+02 0.0000E+00 -1.0
       1    1    1    2  502    0 -1.88174028970E+01 -8.74946373590E+00  2.01714667950E+01  2.89402114730E+01  0.00000000000E+00 0.0000E+00  1.0
#  0.3785969E+03  0.3785969E+03  0.2075205E+02
</event>
<event>
 6 2  4.9130000E+00  1.9783380E+02  7.9577470E-02  1.1577630E-01
       2   -1    0    0  504    0  0.00000000000E+00  0.00000000000E+00  1.09804680370E+03  1.09804680370E+03  0.00000000000E+00 0.0000E+00 -1.0
      21   -1    0    0  501  503  0.00000000000E+00  0.00000000000E+00 -1.60746064000E+02  1.60746064000E+02  0.00000000000E+00 0.0000E+00 -1.0
       6    1    1    2  501    0  1.11021573260E+02 -7.44035227080E+01  3.29083253750E+01  2.20682762810E+02  1.72500000000E+02 0.0000E+00 -1.0
      -6    1    1    2    0  502 -7.80061965510E+01 -1.08141436900E+01  1.15452378220E+02  2.22007689150E+02  1.72500000000E+02 0.0000E+00 -1.0
      21    1    1    2  504  503 -3.12521862960E+01  2.15367134890E+01  1.70842464820E+01  4.16221173660E+01  0.00000000000E+00 0.0000E+00 -1.0
       2    1    1    2  502    0 -1.76319041710E+00  6.36809529090E+01  7.71855789660E+02  7.74480298420E+02  0.00000000000E+00 0.0000E+00 -1.0
#  0.1978338E+03  0.1978338E+03  0.3795430E+02  0.6390385E+02
</event>
<event>
 5 1  4.9130000E+00  2.1827460E+02  7.9577470E-02  1.1419010E-01
      21   -1    0    0  502  503  0.00000000000E+00  0.00000000000E+00  1.73764297980E+02  1.73764297980E+02  0.00000000000E+00 0.0000E+00  1.0
       1   -1    0    0  501    0  0.00000000000E+00  0.00000000000E+00 -1.26294014970E+03  1.26294014970E+03  0.00000000000E+00 0.0000E+00  1.0
       6    1    1    2  501    0  9.10896408150E+00  4.33306907320E+01 -3.20643779740E+02  3.66782231680E+02  1.72500000000E+02 0.0000E+00  1.0
      -6    1    1    2    0  503  3.75742613890E+01 -1.54897549720E+02  5.19776823690E+01  2.40547304070E+02  1.72500000000E+02 0.0000E+00  1.0
       1    1    1    2  502    0 -4.66832254710E+01  1.11566858990E+02 -8.20509754310E+02  8.29374911900E+02  0.00000000000E+00 0.0000E+00  1.0
#  0.2182746E+03  0.2182746E+03  0.1209400E+03
</event>
<event>
 4 0  4.9130000E+00  2.0041860E+02  7.9577470E-02  1.1556440E-01
      21   -1    0    0  503  502  0.00000000000E+00  0.00000000000E+00  1.10774228130E+02  1.10774228130E+02  0.00000000000E+00 0.0000E+00  1.0
      21   -1    0    0  501  503  0.00000000000E+00  0.00000000000E+00 -3.83287390170E+02  3.83287390170E+02  0.00000000000E+00 0.0000E+00  1.0
       6    1    1    2  501    0  4.01931233080E+01  9.37862620440E+01 -7.88766886830E+01  2.15381364390E+02  1.72500000000E+02 0.0000E+00  1.0
      -6    1    1    2    0  502 -4.01931233080E+01 -9.37862620440E+01 -1.93636473360E+02  2.78680253920E+02  1.72500000000E+02 0.0000E+00  1.0
#  0.2004186E+03  0.2004186E+03
</event>
<event>
 4 0  4.9130000E+00  2.0593850E+02  7.9577470E-02  1.1512330E-01
      -2   -1    0    0    0  501  0.00000000000E+00  0.00000000000E+00  2.56717802140E+02  2.56717802140E+02  0.00000000000E+00 0.0000E+00 -1.0
       2   -1    0    0  502    0  0.00000000000E+00  0.00000000000E+00 -1.77801100930E+02  1.77801100930E+02  0.00000000000E+00 0.0000E+00  1.0
       6    1    1    2  502    0  1.10380698090E+02  2.16910393490E+01 -1.83722063910E+01  2.06756348550E+02  1.72500000000E+02 0.0000E+00  1.0
      -6    1    1    2    0  501 -1.10380698090E+02 -2.16910393490E+01  9.72889076020E+01  2.27762554520E+02  1.72500000000E+02 0.0000E+00 -1.0
#  0.3054670E+03  0.3054670E+03
</event>
<event>
 4 0  4.9130000E+00  1.7376700E+02  7.9577470E-02  1.1793740E-01
      21   -1    0    0  501  502  0.00000000000E+00  0.00000000000E+00  7.99289196050E+02  7.99289196050E+02  0.00000000000E+00 0.0000E+00 -1.0
      21   -1    0    0  502  503  0.00000000000E+00  0.00000000000E+00 -3.79785573390E+01  3.79785573390E+01  0.00000000000E+00 0.0000E+00 -1.0
       6    1    1    2  501    0  1.60514979740E+01 -1.34562494580E+01  4.11131692730E+02  4.46345426780E+02  1.72500000000E+02 0.0000E+00  1.0
      -6    1    1    2    0  503 -1.60514979740E+01  1.34562494580E+01  3.50178945980E+02  3.90922326620E+02  1.72500000000E+02 0.0000E+00  1.0
#  0.1737670E+03  0.1737670E+03
</event>
<event>
 4 0  4.9130000E+00  1.8277230E+02  7.9577470E-02  1.1708610E-01
      21   -1    0    0  503  502  0.00000000000E+00  0.00000000000E+00  3.85006529560E+02  3.85006529560E+02  0.00000000000E+00 0.0000E+00  1.0
      21   -1    0    0  501  503  0.00000000000E+00  0.00000000000E+00 -9.02792928210E+01  9.02792928210E+01  0.00000000000E+00 0.0000E+00  1.0
       6    1    1    2  501    0 -1.63473516820E+01 -5.81568574240E+01  1.00487555380E+02  2.08574818130E+02  1.72500000000E+02 0.0000E+00  1.0
      -6    1    1    2    0  502  1.63473516820E+01  5.81568574240E+01  1.94239681360E+02  2.66711004250E+02  1.72500000000E+02 0.0000E+00  1.0
#  0.1827723E+03  0.1827723E+03
</event>
<event>
 6 2  4.9130000E+00  2.5868960E+02  7.9577470E-02  1.1154980E-01
       2   -1    0    0  504    0  0.00000000000E+00  0.00000000000E+00  1.69499161350E+03  1.69499161350E+03  0.00000000000E+00 0.0000E+00 -1.0
      21   -1    0    0  501  503  0.00000000000E+00  0.00000000000E+00 -1.04616511560E+02  1.04616511560E+02  0.00000000000E+00 0.0000E+00  1.0
       6    1    1    2  501    0 -1.44454389710E+02  2.53500323170E+01  2.13677592870E+02  3.11326289510E+02  1.72500000000E+02 0.0000E+00  1.0
      -6    1    1    2    0  502  2.27884047530E+02 -4.88763884910E+00  9.00084338710E+02  9.44385035310E+02  1.72500000000E+02 0.0000E+00 -1.0
      21    1    1    2  504  503 -5.90752473230E+01 -1.21150544590E+01 -5.99540183690E+00  6.06020150980E+01  0.00000000000E+00 0.0000E+00  1.0
       2    1    1    2  502    0 -2.43544104990E+01 -8.34733900900E+00  4.82608572240E+02  4.83294785170E+02  0.00000000000E+00 0.0000E+00 -1.0
#  0.2586896E+03  0.2586896E+03  0.6087998E+02  0.2574520E+02
</event>
<event>
 7 3  4.9130000E+00  1.8625860E+02  7.9577470E-02  1.1677080E-01
      21   -1    0    0  502  503  0.00000000000E+00  0.00000000000E+00  3.64145709380E+02  3.64145709380E+02  0.00000000000E+00 0.0000E+00 -1.0
      -2   -1    0    0    0  501  0.00000000000E+00  0.00000000000E+00 -8.64059106970E+02  8.64059106970E+02  0.00000000000E+00 0.0000E+00  1.0
       6    1    1    2  502    0 -1.70925477120E+02 -2.84212805980E+01 -2.14086237540E+01  2.45434038160E+02  1.72500000000E+02 0.0000E+00 -1.0
      -6    1    1    2    0  501  6.68989276860E+00 -5.12836872610E+01  1.01121553810E+02  2.06534718360E+02  1.72500000000E+02 0.0000E+00 -1.0
      21    1    1    2  504  503  4.80533607220E+01  1.63717046720E+01  5.98830604370E+01  7.85056629660E+01  0.00000000000E+00 0.0000E+00 -1.0
      21    1    1    2  505  504 -1.72866649110E+01  2.32078725900E+01  1.21122896980E+01  3.13710327480E+01  0.00000000000E+00 0.0000E+00  1.0
      -2    1    1    2    0  505  1.33468888540E+02  4.01253905970E+01 -6.51621677780E+02  6.66359364110E+02  0.00000000000E+00 0.0000E+00  1.0
#  0.1862586E+03  0.1862586E+03  0.4928678E+02  0.2893845E+02  0.1404742E+03
</event>
<event>
 5 1  4.9130000E+00  2.3368810E+02  7.9577470E-02  1.1311470E-01
      21   -1    0    0  502  503  0.00000000000E+00  0.00000000000E+00  4.64570306440E+02  4.64570306440E+02  0.00000000000E+00 0.0000E+00  1.0
       2   -1    0    0  501    0  0.00000000000E+00  0.00000000000E+00 -3.75276527460E+02  3.75276527460E+02  0.00000000000E+00 0.0000E+00 -1.0
       6    1    1    2  501    0  1.80002686570E+02  4.14085951410E+01  9.61401498100E+01  2.70397517240E+02  1.72500000000E+02 0.0000E+00  1.0
      -6    1    1    2    0  503 -1.42610828950E+02 -1.90668370880E+01  2.34193060520E+02  3.24505828000E+02  1.72500000000E+02 0.0000E+00  1.0
       2    1    1    2  502    0 -3.73918576170E+01 -2.23417580520E+01 -2.41039431350E+02  2.44943488660E+02  0.00000000000E+00 0.0000E+00 -1.0
#  0.2336881E+03  0.2336881E+03  0.4355807E+02
</event>
<event>
 5 1  4.9130000E+00  1.9767400E+02  7.9577470E-02  1.1578950E-01
       2   -1    0    0  503    0  0.00000000000E+00  0.00000000000E+00  1.89659524810E+03  1.89659524810E+03  0.00000000000E+00 0.0000E+00 -1.0
      21   -1    0    0  501  503  0.00000000000E+00  0.00000000000E+00 -4.47655303680E+01  4.47655303680E+01  0.00000000000E+00 0.0000E+00  1.0
       6    1    1    2  501    0 -2.82356174100E+01 -7.99663116300E+01  9.67028994750E+02  9.85947862600E+02  1.72500000000E+02 0.0000E+00 -1.0
      -6    1    1    2    0  502  5.59893308350E+01  8.35534629500E+01  2.49820740820E+02  3.19816570680E+02  1.72500000000E+02 0.0000E+00  1.0
       2    1    1    2  502    0 -2.77537134250E+01 -3.58715132010E+00  6.34979982210E+02  6.35596345230E+02  0.00000000000E+00 0.0000E+00 -1.0
#  0.1976740E+03  0.1976740E+03  0.2798457E+02
</event>
<event>
 5 1  4.9130000E+00  2.0559500E+02  7.9577470E-02  1.1515030E-01
      21   -1    0    0  501  502  0.00000000000E+00  0.00000000000E+00  9.73032094410E+01  9.73032094410E+01  0.00000000000E+00 0.0000E+00 -1.0
      21   -1    0    0  502  503  0.00000000000E+00  0.00000000000E+00 -6.91034480380E+02  6.91034480380E+02  0.00000000000E+00 0.0000E+00 -1.0
       6    1    1    2  501    0 -8.04434492960E+01 -3.32832733750E+01 -2.22805458080E+02  2.94919390630E+02  1.72500000000E+02 0.0000E+00 -1.0
      -6    1    1    2    0  504  1.32072579440E+02  1.64645069500E+01 -1.46580721450E+02  2.62595514300E+02  1.72500000000E+02 0.0000E+00 -1.0
      21    1    1    2  504  503 -5.16291301470E+01  1.68187664240E+01 -2.24345091400E+02  2.30822784880E+02  0.00000000000E+00 0.0000E+00 -1.0
#  0.2055950E+03  0.2055950E+03  0.5429952E+02
</event>
<event>
 4 0  4.9130000E+00  1.7574560E+02  7.9577470E-02  1.1774550E-01
      -2   -1    0    0    0  501  0.00000000000E+00  0.00000000000E+00  6.65078469690E+01  6.65078469690E+01  0.00000000000E+00 0.0000E+00 -1.0
       2   -1    0    0  502    0  0.00000000000E+00  0.00000000000E+00 -5.92969871670E+02  5.92969871670E+02  0.00000000000E+00 0.0000E+00  1.0
       6    1    1    2  502    0 -1.80129744740E+01  2.83867890900E+01 -4.16769139210E+02  4.52308569940E+02  1.72500000000E+02 0.0000E+00  1.0
      -6    1    1    2    0  501  1.80129744740E+01 -2.83867890900E+01 -1.09692885490E+02  2.07169148690E+02  1.72500000000E+02 0.0000E+00 -1.0
#  0.2616865E+03  0.2616865E+03
</event>
<event>
 4 0  4.9130000E+00  1.7418440E+02  7.9577470E-02  1.1789670E-01
      21   -1    0    0  501  502  0.00000000000E+00  0.00000000000E+00  1.06802398880E+02  1.06802398880E+02  0.00000000000E+00 0.0000E+00 -1.0
      21   -1    0    0  502  503  0.00000000000E+00  0.00000000000E+00 -5.08615610680E+02  5.08615610680E+02  0.00000000000E+00 0.0000E+00 -1.0
       6    1    1    2  501    0  2.41511393530E+01 -8.22118987250E-01  3.54474659920E+00  1.74220459880E+02  1.72500000000E+02 0.0000E+00 -1.0
      -6    1    1    2    0  503 -2.41511393530E+01  8.22118987250E-01 -4.05357958400E+02  4.41197549680E+02  1.72500000000E+02 0.0000E+00 -1.0
#  0.1741844E+03  0.1741844E+03
</event>
<event>
 4 0  4.9130000E+00  2.1246630E+02  7.9577470E-02  1.1462090E-01
      21   -1    0    0  503  502  0.00000000000E+00  0.00000000000E+00  2.66668672040E+02  2.66668672040E+02  0.00000000000E+00 0.0000E+00 -1.0
      21   -1    0    0  501  503  0.00000000000E+00  0.00000000000E+00 -2.73736905700E+02  2.73736905700E+02  0.00000000000E+00 0.0000E+00 -1.0
       6    1    1    2  501    0  1.15560945250E+02 -4.50706420620E+01 -1.70446903550E+02  2.72385924330E+02  1.72500000000E+02 0.0000E+00 -1.0
      -6    1    1    2    0  502 -1.15560945250E+02  4.50706420620E+01  1.63378669880E+02  2.68019653410E+02  1.72500000000E+02 0.0000E+00 -1.0
#  0.2124663E+03  0.2124663E+03
</event>
<event>
 4 0  4.9130000E+00  2.1522900E+02  7.9577470E-02  1.1441410E-01
      21   -1    0    0  501  502  0.00000000000E+00  0.00000000000E+00  1.45244687970E+02  1.45244687970E+02  0.00000000000E+00 0.0000E+00 -1.0
      21   -1    0    0  502  503  0.00000000000E+00  0.00000000000E+00 -4.10410091170E+02  4.10410091170E+02  0.00000000000E+00 0.0000E+00 -1.0
       6    1    1    2  501    0 -1.24687970830E+02 -3.19404553340E+01 -1.41744733650E+00  2.15233691400E+02  1.72500000000E+02 0.0000E+00 -1.0
      -6    1    1    2    0  503  1.24687970830E+02  3.19404553340E+01 -2.63747955860E+02  3.40421087740E+02  1.72500000000E+02 0.0000E+00 -1.0
#  0.2152290E+03  0.2152290E+03
</event>
<event>
 4 0  4.9130000E+00  1.7958070E+02  7.9577470E-02  1.1738150E-01
      -2   -1    0    0    0  501  0.00000000000E+00  0.00000000000E+00  3.56376682510E+01  3.56376682510E+01  0.00000000000E+00 0.0000E+00 -1.0
       2   -1    0    0  502    0  0.00000000000E+00  0.00000000000E+00 -9.66426446510E+02  9.66426446510E+02  0.00000000000E+00 0.0000E+00  1.0
       6    1    1    2  502    0  4.40263687820E+01  2.35513662430E+01 -5.91792768050E+02  6.18439906790E+02  1.72500000000E+02 0.0000E+00  1.0
      -6    1    1    2    0  501 -4.40263687820E+01 -2.35513662430E+01 -3.38996010210E+02  3.83624207970E+02  1.72500000000E+02 0.0000E+00 -1.0
#  0.2202181E+03  0.2202181E+03
</event>
<event>
 5 1  4.9130000E+00  1.8248570E+02  7.9577470E-02  1.1711230E-01
      21   -1    0    0  503  502  0.00000000000E+00  0.00000000000E+00  4.82745808730E+02  4.82745808730E+02  0.00000000000E+00 0.0000E+00 -1.0
      21   -1    0    0  504  503  0.00000000000E+00  0.00000000000E+00 -4.79546341850E+02  4.79546341850E+02  0.00000000000E+00 0.0000E+00  1.0
       6    1    1    2  501    0  8.88956484710E+01 -2.01618516320E+01  3.37466653220E+02  3.89806270620E+02  1.72500000000E+02 0.0000E+00 -1.0
      -6    1    1    2    0  502  2.44470111140E+01  1.47560484040E+00  4.18768994820E+01  1.79191959840E+02  1.72500000000E+02 0.0000E+00  1.0
      21    1    1    2  504  501 -1.13342659590E+02  1.86862467910E+01 -3.76144085820E+02  3.93293920120E+02  0.00000000000E+00 0.0000E+00  1.0
#  0.1824857E+03  0.1824857E+03  0.1148727E+03
</event>
<event>
 7 3  4.9130000E+00  3.9204720E+02  7.9577470E-02  1.0557540E-01
      21   -1    0    0  501  503  0.00000000000E+00  0.00000000000E+00  1.34378869300E+03  1.34378869300E+03  0.00000000000E+00 0.0000E+00 -1.0
       2   -1    0    0  505    0  0.00000000000E+00  0.00000000000E+00 -9.48783975910E+02  9.48783975910E+02  0.00000000000E+00 0.0000E+00  1.0
       6    1    1    2  501    0 -3.33216374560E+02  3.04179590650E+02  5.61352774170E+02  7.40561653550E+02  1.72500000000E+02 0.0000E+00  1.0
      -6    1    1    2    0  502  7.57575200240E+01 -1.19426080820E+02 -4.15939112840E+02  4.71978162850E+02  1.72500000000E+02 0.0000E+00  1.0
      21    1    1    2  504  503  4.41298256580E+01 -3.37881316260E+01  1.60336061970E+02  1.69695999130E+02  0.00000000000E+00 0.0000E+00  1.0
      21    1    1    2  505  504  1.96207070690E+02 -1.63485859250E+02  4.66853094440E+02  5.32143451100E+02  0.00000000000E+00 0.0000E+00 -1.0
       2    1    1    2  502    0  1.71219581920E+01  1.25204810400E+01 -3.77598100660E+02  3.78193402270E+02  0.00000000000E+00 0.0000E+00  1.0
#  0.3920472E+03  0.2229842E+03  0.2347778E+02  0.3556378E+03  0.2121141E+02
</event>
<event>
 6 2  4.9130000E+00  2.0200310E+02  7.9577470E-02  1.1543620E-01
       2   -1    0    0  504    0  0.00000000000E+00  0.00000000000E+00  1.12082335930E+03  1.12082335930E+03  0.00000000000E+00 0.0000E+00  1.0
      21   -1    0    0  501  503  0.00000000000E+00  0.00000000000E+00 -1.19625467520E+02  1.19625467520E+02  0.00000000000E+00 0.0000E+00  1.0
       6    1    1    2  501    0 -9.80847095680E+01  1.03595940350E+02  2.38139699000E+02  3.26832518800E+02  1.72500000000E+02 0.0000E+00  1.0
      -6    1    1    2    0  502  1.05261126040E+02 -6.90640356500E+01  4.74252049700E+02  5.20116335380E+02  1.72500000000E+02 0.0000E+00  1.0
      21    1    1    2  504  503 -7.67056351140E+01  3.24206698560E+01  2.84981865900E+02  2.96899845380E+02  0.00000000000E+00 0.0000E+00 -1.0
       2    1    1    2  502    0  6.95292186370E+01 -6.69525745540E+01  3.82427712420E+00  9.66001272210E+01  0.00000000000E+00 0.0000E+00  1.0
#  0.3454094E+03  0.3454094E+03  0.8327577E+02  0.9183841E+02
</event>
<event>
 5 1  4.9130000E+00  2.5210050E+02  7.9577470E-02  1.1194290E-01
      21   -1    0    0  504  502  0.00000000000E+00  0.00000000000E+00  5.85865891930E+02  5.85865891930E+02  0.00000000000E+00 0.0000E+00 -1.0
      21   -1    0    0  501  503  0.00000000000E+00  0.00000000000E+00 -1.66009620930E+02  1.66009620930E+02  0.00000000000E+00 0.0000E+00  1.0
       6    1    1    2  501    0  1.77595189170E+02 -3.40835306430E+01  3.73850961550E+00  2.49943923170E+02  1.72500000000E+02 0.0000E+00  1.0
      -6    1    1    2    0  502 -1.93198497210E+02  2.06574998860E+01  3.79458028520E+02  4.59888070120E+02  1.72500000000E+02 0.0000E+00 -1.0
      21    1    1    2  504  503  1.56033080490E+01  1.34260307570E+01  3.66597328680E+01  4.20435195710E+01  0.00000000000E+00 0.0000E+00  1.0
#  0.2521005E+03  0.2521005E+03  0.2058450E+02
</event>
<event>
 6 2  4.9130000E+00  2.7636930E+02  7.9577470E-02  1.1055500E-01
      21   -1    0    0  502  503  0.00000000000E+00  0.00000000000E+00  2.03263921610E+02  2.03263921610E+02  0.00000000000E+00 0.0000E+00 -1.0
       3   -1    0    0  501    0  0.00000000000E+00  0.00000000000E+00 -1.22516755800E+03  1.22516755800E+03  0.00000000000E+00 0.0000E+00  1.0
       6    1    1    2  501    0  1.77623052570E+01 -1.61558475260E+01 -2.47257922910E+02  3.02438822480E+02  1.72500000000E+02 0.0000E+00  1.0
      -6    1    1    2    0  504  1.82154277760E+02  5.39537854560E+01 -2.75143086760E+02  3.76232853510E+02  1.72500000000E+02 0.0000E+00 -1.0
      21    1    1    2  504  503  3.02975954720E+01 -8.88105967140E+01  8.05146064880E+01  1.23644119300E+02  0.00000000000E+00 0.0000E+00 -1.0
       3    1    1    2  502    0 -2.30214178490E+02  5.10126587840E+01 -5.80017233240E+02  6.26115684350E+02  0.00000000000E+00 0.0000E+00  1.0
#  0.1790626E+03  0.2763693E+03  0.9383638E+02  0.2159253E+03
</event>
<event>
 5 1  4.9130000E+00  1.9142990E+02  7.9577470E-02  1.1631700E-01
       5   -1    0    0  501    0  0.00000000000E+00  0.00000000000E+00  7.68859661840E+02  7.68859661840E+02  0.00000000000E+00 0.0000E+00  1.0
      21   -1    0    0  502  503  0.00000000000E+00  0.00000000000E+00 -7.47172474510E+01  7.47172474510E+01  0.00000000000E+00 0.0000E+00 -1.0
       6    1    1    2  501    0  5.04246183790E+01  5.18516087850E+01  4.83910782480E+02  5.18803553260E+02  1.72500000000E+02 0.0000E+00  1.0
      -6    1    1    2    0  503 -6.64174184000E+01 -8.99905715530E+01  1.83177241460E+02  2.75353823700E+02  1.72500000000E+02 0.0000E+00 -1.0
       5    1    1    2  502    0  1.59928000210E+01  3.81389627680E+01  2.70543904420E+01  4.94195323300E+01  0.00000000000E+00 0.0000E+00  1.0
#  0.3077343E+03  0.3077343E+03  0.4135638E+02
</event>
<event>
 5 1  4.9130000E+00  1.7822560E+02  7.9577470E-02  1.1750900E-01
      21   -1    0    0  502  503  0.00000000000E+00  0.00000000000E+00  2.18897609730E+02  2.18897609730E+02  0.00000000000E+00 0.0000E+00  1.0
       2   -1    0    0  501    0  0.00000000000E+00  0.00000000000E+00 -6.36107157530E+02  6.36107157530E+02  0.00000000000E+00 0.0000E+00  1.0
       6    1    1    2  501    0 -4.67171788760E+01  1.47122837490E+01  1.44564424410E+02  2.30334688880E+02  1.72500000000E+02 0.0000E+00  1.0
      -6    1    1    2    0  503  8.41773399900E+00 -3.42557652730E+01 -2.27663177050E+02  2.87803905260E+02  1.72500000000E+02 0.0000E+00 -1.0
       2    1    1    2  502    0  3.82994448770E+01  1.95434815230E+01 -3.34110795160E+02  3.36866173120E+02  0.00000000000E+00 0.0000E+00  1.0
#  0.1782256E+03  0.1782256E+03  0.4299762E+02
</event>
<event>
 6 2  4.9130000E+00  3.2913610E+02  7.9577470E-02  1.0800910E-01
      -1   -1    0    0    0  501  0.00000000000E+00  0.00000000000E+00  2.05404203760E+02  2.05404203760E+02  0.00000000000E+00 0.0000E+00  1.0
      21   -1    0    0  504  503  0.00000000000E+00  0.00000000000E+00 -1.39861563520E+03  1.39861563520E+03  0.00000000000E+00 0.0000E+00 -1.0
       6    1    1    2  502    0 -7.42916769410E+01 -2.25175379490E+02 -1.06724949950E+02  3.12041134680E+02  1.72500000000E+02 0.0000E+00  1.0
      -6    1    1    2    0  501  1.22844002270E+02  3.58986299420E+02 -3.89935343040E+02  5.70760574860E+02  1.72500000000E+02 0.0000E+00 -1.0
      21    1    1    2  504  502  1.25384240750E+01  1.75437092000E+01 -1.23820923350E+02  1.25684584850E+02  0.00000000000E+00 0.0000E+00 -1.0
      -1    1    1    2    0  503 -6.10907494010E+01 -1.51354629130E+02 -5.72730215120E+02  5.95533544590E+02  0.00000000000E+00 0.0000E+00  1.0
#  0.6504890E+03  0.6504890E+03  0.2156372E+02  0.1536242E+03
</event>
<event>
 4 0  4.9130000E+00  1.8428800E+02  7.9577470E-02  1.1694810E-01
      21   -1    0    0  503  502  0.00000000000E+00  0.00000000000E+00  1.43160908340E+02  1.43160908340E+02  0.00000000000E+00 0.0000E+00  1.0
      21   -1    0    0  501  503  0.00000000000E+00  0.00000000000E+00 -2.65317558880E+02  2.65317558880E+02  0.00000000000E+00 0.0000E+00  1.0
       6    1    1    2  501    0  4.78066555490E+01 -4.38217051760E+01 -1.27531059740E+02  2.24112113370E+02  1.72500000000E+02 0.0000E+00  1.0
      -6    1    1    2    0  502 -4.78066555490E+01  4.38217051760E+01  5.37440920830E+00  1.84366353850E+02  1.72500000000E+02 0.0000E+00  1.0
#  0.1842880E+03  0.1842880E+03
</event>
<event>
 5 1  4.9130000E+00  2.0767360E+02  7.9577470E-02  1.1498780E-01
      21   -1    0    0  501  502  0.00000000000E+00  0.00000000000E+00  1.76584516480E+02  1.76584516480E+02  0.00000000000E+00 0.0000E+00 -1.0
      21   -1    0    0  502  503  0.00000000000E+00  0.00000000000E+00 -1.84560104080E+03  1.84560104080E+03  0.00000000000E+00 0.0000E+00 -1.0
       6    1    1    2  501    0  1.04756986570E+02 -9.51172366030E+00  5.51705078950E+01  2.09438616460E+02  1.72500000000E+02 0.0000E+00  1.0
      -6    1    1    2    0  504 -1.67646451560E+02 -7.24620783200E+01 -3.30034073840E+02  4.14770810710E+02  1.72500000000E+02 0.0000E+00 -1.0
      21    1    1    2  504  503  6.28894649860E+01  8.19738019800E+01 -1.39415295840E+03  1.39797613010E+03  0.00000000000E+00 0.0000E+00 -1.0
#  0.2076736E+03  0.2076736E+03  0.1033189E+03
</event>
<event>
 7 3  4.9130000E+00  1.9336320E+02  7.9577470E-02  1.1615130E-01
       2   -1    0    0  501    0  0.00000000000E+00  0.00000000000E+00  1.43819812780E+03  1.43819812780E+03  0.00000000000E+00 0.0000E+00  1.0
      21   -1    0    0  504  503  0.00000000000E+00  0.00000000000E+00 -2.24011433890E+02  2.24011433890E+02  0.00000000000E+00 0.0000E+00  1.0
       6    1    1    2  501    0 -8.76623926890E+01 -6.87311187130E-01  7.26772055920E+01  2.06696380470E+02  1.72500000000E+02 0.0000E+00  1.0
      -6    1    1    2    0  505  9.28096862150E+01 -2.15104972340E+01 -1.03630245730E+01  1.97332160650E+02  1.72500000000E+02 0.0000E+00  1.0
      21    1    1    2  504  502 -3.50882085990E+01  3.90619280700E+01  8.71065953910E+01  1.01708286620E+02  0.00000000000E+00 0.0000E+00 -1.0
      21    1    1    2  505  503 -2.10930604190E+01 -2.93554042510E+00 -4.27147830970E+01  4.77293126960E+01  0.00000000000E+00 0.0000E+00  1.0
       2    1    1    2  502    0  5.10339754920E+01 -1.39285792240E+01  1.10748070060E+03  1.10874342130E+03  0.00000000000E+00 0.0000E+00  1.0
#  0.1933632E+03  0.1933632E+03  0.4085291E+02  0.2129635E+02  0.5283147E+02
</event>
<event>
 4 0  4.9130000E+00  2.6624320E+02  7.9577470E-02  1.1111450E-01
      21   -1    0    0  501  502  0.00000000000E+00  0.00000000000E+00  3.57332627130E+02  3.57332627130E+02  0.00000000000E+00 0.0000E+00  1.0
      21   -1    0    0  502  503  0.00000000000E+00  0.00000000000E+00 -3.24788099690E+02  3.24788099690E+02  0.00000000000E+00 0.0000E+00  1.0
       6    1    1    2  501    0  1.98551748760E+01 -2.01829067820E+02  2.29051479670E+02  3.51212230610E+02  1.72500000000E+02 0.0000E+00  1.0
      -6    1    1    2    0  503 -1.98551748760E+01  2.01829067820E+02 -1.96506952230E+02  3.30908496210E+02  1.72500000000E+02 0.0000E+00  1.0
#  0.2662432E+03  0.2662432E+03
</event>
<event>
 4 0  4.9130000E+00  2.7508940E+02  7.9577470E-02  1.1062430E-01
      21   -1    0    0  503  502  0.00000000000E+00  0.00000000000E+00  9.29243338730E+01  9.29243338730E+01  0.00000000000E+00 0.0000E+00  1.0
      21   -1    0    0  501  503  0.00000000000E+00  0.00000000000E+00 -8.99762268400E+02  8.99762268400E+02  0.00000000000E+00 0.0000E+00 -1.0
       6    1    1    2  501    0  8.78457271500E+01  1.95450888980E+02 -2.50505948270E+02  3.72058331320E+02  1.72500000000E+02 0.0000E+00  1.0
      -6    1    1    2    0  502 -8.78457271500E+01 -1.95450888980E+02 -5.56331986250E+02  6.20628270960E+02  1.72500000000E+02 0.0000E+00 -1.0
#  0.2750894E+03  0.2750894E+03
</event>
<event>
 7 3  4.9130000E+00  2.1291850E+02  7.9577470E-02  1.1458680E-01
      21   -1    0    0  502  503  0.00000000000E+00  0.00000000000E+00  1.25541468180E+02  1.25541468180E+02  0.00000000000E+00 0.0000E+00 -1.0
       1   -1    0    0  505    0  0.00000000000E+00  0.00000000000E+00 -1.71502439440E+03  1.71502439440E+03  0.00000000000E+00 0.0000E+00 -1.0
       6    1    1    2  501    0 -1.43885242010E+01  9.38767126150E+01 -5.75441886250E+02  6.08201842530E+02  1.72500000000E+02 0.0000E+00 -1.0
      -6    1    1    2    0  504  4.83517737110E+01 -1.40546790930E+02 -1.44816261010E+02  2.69850502900E+02  1.72500000000E+02 0.0000E+00 -1.0
      21    1    1    2  504  503 -1.74988314470E+01  1.53242935870E+01  4.18869085970E+01  4.79119628880E+01  0.00000000000E+00 0.0000E+00 -1.0
      21    1    1    2  505  501  1.42250623250E+01 -1.61301615840E+01 -1.73747893570E+02  1.75073884490E+02  0.00000000000E+00 0.0000E+00 -1.0
       1    1    1    2  502    0 -3.06894803880E+01  4.74759463160E+01 -7.37363793960E+02  7.39527669760E+02  0.00000000000E+00 0.0000E+00 -1.0
#  0.2129185E+03  0.2129185E+03  0.2321863E+02  0.2150662E+02  0.4665898E+02
</event>
<event>
 4 0  4.9130000E+00  1.7988060E+02  7.9577470E-02  1.1735340E-01
      -2   -1    0    0    0  501  0.00000000000E+00  0.00000000000E+00  2.88434826080E+01  2.88434826080E+01  0.00000000000E+00 0.0000E+00 -1.0
       2   -1    0    0  502    0  0.00000000000E+00  0.00000000000E+00 -1.23844785440E+03  1.23844785440E+03  0.00000000000E+00 0.0000E+00  1.0
       6    1    1    2  502    0  5.08854624590E+01  3.38478198790E+00 -4.10347241790E+02  4.48042292520E+02  1.72500000000E+02 0.0000E+00 -1.0
      -6    1    1    2    0  501 -5.08854624590E+01 -3.38478198790E+00 -7.99257129970E+02  8.19249044460E+02  1.72500000000E+02 0.0000E+00  1.0
#  0.2315510E+03  0.2315510E+03
</event>
<event>
 7 3  4.9130000E+00  1.8245040E+02  7.9577470E-02  1.1711560E-01
       4   -1    0    0  504    0  0.00000000000E+00  0.00000000000E+00  5.26054687790E+02  5.26054687790E+02  0.00000000000E+00 0.0000E+00 -1.0
      21   -1    0    0  501  503  0.00000000000E+00  0.00000000000E+00 -2.05919203870E+02  2.05919203870E+02  0.00000000000E+00 0.0000E+00  1.0
       6    1    1    2  501    0 -2.19532125550E+01  3.32275733780E+01  6.64707565090E+01  1.89104803340E+02  1.72500000000E+02 0.0000E+00 -1.0
      -6    1    1    2    0  505  8.77761870230E+01  2.85925822930E+01  1.59461236920E+02  2.52401130840E+02  1.72500000000E+02 0.0000E+00 -1.0
      21    1    1    2  504  503  3.80570358420E+00  4.50842334210E+01  2.37064189160E+00  4.53066377690E+01  0.00000000000E+00 0.0000E+00  1.0
      21    1    1    2  505  502 -2.79533417710E+01  5.39948494100E+01  1.90596485000E+01  6.37189397260E+01  0.00000000000E+00 0.0000E+00  1.0
       4    1    1    2  502    0 -4.16753362810E+01 -1.60899238500E+02  7.27732001030E+01  1.81442379990E+02  0.00000000000E+00 0.0000E+00 -1.0
#  0.2155437E+03  0.2155437E+03  0.2765199E+02  0.1068986E+03  0.1370490E+03
</event>
<event>
 5 1  4.9130000E+00  2.9761760E+02  7.9577470E-02  1.0946130E-01
      21   -1    0    0  503  502  0.00000000000E+00  0.00000000000E+00  5.45727136940E+02  5.45727136940E+02  0.00000000000E+00 0.0000E+00  1.0
      21   -1    0    0  501  503  0.00000000000E+00  0.00000000000E+00 -2.47714536580E+02  2.47714536580E+02  0.00000000000E+00 0.0000E+00  1.0
       6    1    1    2  501    0  1.66950139170E+02  1.63394637750E+02  1.28364892390E+02  3.17496381420E+02  1.72500000000E+02 0.0000E+00  1.0
      -6    1    1    2    0  504 -1.59383526080E+02 -1.91406786190E+02 -8.66748172740E-01  3.02979648550E+02  1.72500000000E+02 0.0000E+00  1.0
      21    1    1    2  504  502 -7.56661309400E+00  2.80121484400E+01  1.70514456140E+02  1.72965643550E+02  0.00000000000E+00 0.0000E+00  1.0
#  0.2976176E+03  0.2976176E+03  0.2901610E+02
</event>
<event>
 5 1  4.9130000E+00  2.1674300E+02  7.9577470E-02  1.1430230E-01
      21   -1    0    0  501  502  0.00000000000E+00  0.00000000000E+00  1.00423997560E+03  1.00423997560E+03  0.00000000000E+00 0.0000E+00  1.0
      21   -1    0    0  504  503  0.00000000000E+00  0.00000000000E+00 -1.54303637810E+02  1.54303637810E+02  0.00000000000E+00 0.0000E+00  1.0
       6    1    1    2  501    0  7.98356068640E+01  4.79538267110E+01 -3.47640943310E+01  1.99093158780E+02  1.72500000000E+02 0.0000E+00  1.0
      -6    1    1    2    0  503 -1.34397058360E+02 -2.31168608470E+01  8.70498933250E+02  8.97842748670E+02  1.72500000000E+02 0.0000E+00  1.0
      21    1    1    2  504  502  5.45614514920E+01 -2.48369658640E+01  1.42014988630E+01  6.16077059480E+01  0.00000000000E+00 0.0000E+00  1.0
#  0.2167430E+03  0.2167430E+03  0.5994854E+02
</event>
<event>
 5 1  4.9130000E+00  1.8608700E+02  7.9577470E-02  1.1678620E-01
      21   -1    0    0  503  502  0.00000000000E+00  0.00000000000E+00  3.82106705520E+02  3.82106705520E+02  0.00000000000E+00 0.0000E+00 -1.0
      21   -1    0    0  504  503  0.00000000000E+00  0.00000000000E+00 -2.03978192180E+02  2.03978192180E+02  0.00000000000E+00 0.0000E+00 -1.0
       6    1    1    2  501    0 -1.27175313390E+02 -4.38825180140E+01  1.24505150080E+02  2.51708200340E+02  1.72500000000E+02 0.0000E+00 -1.0
      -6    1    1    2    0  502  8.49383044530E+00  2.79244749200E+01  1.05032074470E+02  2.04058589930E+02  1.72500000000E+02 0.0000E+00 -1.0
      21    1    1    2  504  501  1.18681482950E+02  1.59580430940E+01 -5.14087112160E+01  1.30318107420E+02  0.00000000000E+00 0.0000E+00 -1.0
#  0.1860870E+03  0.1860870E+03  0.1197495E+03
</event>
<event>
 4 0  4.9130000E+00  1.9005400E+02  7.9577470E-02  1.1643620E-01
      21   -1    0    0  501  502  0.00000000000E+00  0.00000000000E+00  1.14168684520E+02  1.14168684520E+02  0.00000000000E+00 0.0000E+00 -1.0
      21   -1    0    0  502  503  0.00000000000E+00  0.00000000000E+00 -4.88675107920E+02  4.88675107920E+02  0.00000000000E+00 0.0000E+00  1.0
       6    1    1    2  501    0 -2.30472907980E+01  7.63747215190E+01 -8.27384864380E+00  1.90234019750E+02  1.72500000000E+02 0.0000E+00 -1.0
      -6    1    1    2    0  503  2.30472907980E+01 -7.63747215190E+01 -3.66232574760E+02  4.12609772680E+02  1.72500000000E+02 0.0000E+00  1.0
#  0.1900540E+03  0.1900540E+03
</event>
</LesHouchesEvents>
